# vtk DataFile Version 2.0

ASCII

DATASET UNSTRUCTURED_GRID

POINTS 136 float 

1.4705882355000000e-02  0.0000000000000000e+00  4.9999999999999996e-02
1.4705882355000000e-02  0.0000000000000000e+00  1.4999999999999999e-01
1.4705882355000000e-02  0.0000000000000000e+00  2.4999999999999997e-01
1.4705882355000000e-02  0.0000000000000000e+00  3.4999999999999998e-01
4.4117647059999994e-02  0.0000000000000000e+00  5.0000000000000003e-02
4.4117647059999994e-02  0.0000000000000000e+00  1.5000000000000002e-01
4.4117647059999994e-02  0.0000000000000000e+00  2.5000000000000000e-01
4.4117647060000001e-02  0.0000000000000000e+00  3.4999999999999998e-01
7.3529411764999983e-02  0.0000000000000000e+00  5.0000000000000010e-02
7.3529411764999983e-02  0.0000000000000000e+00  1.5000000000000002e-01
7.3529411764999997e-02  0.0000000000000000e+00  2.5000000000000000e-01
7.3529411764999997e-02  0.0000000000000000e+00  3.4999999999999998e-01
1.0294117645999996e-01  0.0000000000000000e+00  4.9999999999999989e-02
1.0294117646000002e-01  0.0000000000000000e+00  1.5000000000000002e-01
1.0294117645999999e-01  0.0000000000000000e+00  2.5000000000000000e-01
1.0294117645999998e-01  0.0000000000000000e+00  3.4999999999999998e-01
1.3235294114999999e-01  0.0000000000000000e+00  4.9999999999999996e-02
1.3235294114999999e-01  0.0000000000000000e+00  1.5000000000000002e-01
1.3235294114999999e-01  0.0000000000000000e+00  2.4999999999999997e-01
1.3235294114999999e-01  0.0000000000000000e+00  3.4999999999999992e-01
1.6176470585000000e-01  0.0000000000000000e+00  5.0000000000000003e-02
1.6176470584999997e-01  0.0000000000000000e+00  1.4999999999999999e-01
1.6176470585000000e-01  0.0000000000000000e+00  2.4999999999999997e-01
1.6176470585000000e-01  0.0000000000000000e+00  3.5000000000000003e-01
1.9117647054999998e-01  0.0000000000000000e+00  5.0000000000000003e-02
1.9117647054999998e-01  0.0000000000000000e+00  1.4999999999999999e-01
1.9117647055000000e-01  0.0000000000000000e+00  2.4999999999999997e-01
1.9117647054999998e-01  0.0000000000000000e+00  3.5000000000000003e-01
2.2058823524999999e-01  0.0000000000000000e+00  5.0000000000000003e-02
2.2058823524999999e-01  0.0000000000000000e+00  1.5000000000000002e-01
2.2058823524999999e-01  0.0000000000000000e+00  2.5000000000000000e-01
2.2058823524999999e-01  0.0000000000000000e+00  3.5000000000000003e-01
2.5000000000000000e-01  0.0000000000000000e+00  4.9999999999999996e-02
2.5000000000000000e-01  0.0000000000000000e+00  1.5000000000000005e-01
2.5000000000000000e-01  0.0000000000000000e+00  2.5000000000000000e-01
2.5000000000000000e-01  0.0000000000000000e+00  3.4999999999999998e-01
2.7941176474999996e-01  0.0000000000000000e+00  5.0000000000000003e-02
2.7941176474999996e-01  0.0000000000000000e+00  1.4999999999999999e-01
2.7941176475000001e-01  0.0000000000000000e+00  2.5000000000000000e-01
2.7941176474999990e-01  0.0000000000000000e+00  3.4999999999999992e-01
3.0882352944999997e-01  0.0000000000000000e+00  5.0000000000000003e-02
3.0882352945000002e-01  0.0000000000000000e+00  1.5000000000000002e-01
3.0882352945000002e-01  0.0000000000000000e+00  2.4999999999999997e-01
3.0882352945000002e-01  0.0000000000000000e+00  3.4999999999999992e-01
3.3823529414999998e-01  0.0000000000000000e+00  5.0000000000000003e-02
3.3823529415000003e-01  0.0000000000000000e+00  1.4999999999999999e-01
3.3823529414999998e-01  0.0000000000000000e+00  2.5000000000000000e-01
3.3823529414999992e-01  0.0000000000000000e+00  3.4999999999999992e-01
3.6764705885000004e-01  0.0000000000000000e+00  5.0000000000000003e-02
3.6764705885000004e-01  0.0000000000000000e+00  1.4999999999999999e-01
3.6764705885000004e-01  0.0000000000000000e+00  2.5000000000000000e-01
3.6764705884999999e-01  0.0000000000000000e+00  3.4999999999999992e-01
3.9705882354999994e-01  0.0000000000000000e+00  5.0000000000000003e-02
3.9705882355000005e-01  0.0000000000000000e+00  1.4999999999999999e-01
3.9705882355000000e-01  0.0000000000000000e+00  2.5000000000000000e-01
3.9705882355000000e-01  0.0000000000000000e+00  3.4999999999999992e-01
4.2647058824999995e-01  0.0000000000000000e+00  5.0000000000000003e-02
4.2647058824999989e-01  0.0000000000000000e+00  1.4999999999999999e-01
4.2647058824999995e-01  0.0000000000000000e+00  2.4999999999999997e-01
4.2647058825000006e-01  0.0000000000000000e+00  3.5000000000000003e-01
4.5588235295000001e-01  0.0000000000000000e+00  5.0000000000000003e-02
4.5588235295000001e-01  0.0000000000000000e+00  1.4999999999999999e-01
4.5588235295000001e-01  0.0000000000000000e+00  2.5000000000000000e-01
4.5588235294999990e-01  0.0000000000000000e+00  3.4999999999999992e-01
4.8529411764999991e-01  0.0000000000000000e+00  5.0000000000000003e-02
4.8529411764999991e-01  0.0000000000000000e+00  1.4999999999999999e-01
4.8529411765000002e-01  0.0000000000000000e+00  2.5000000000000000e-01
4.8529411765000002e-01  0.0000000000000000e+00  3.4999999999999992e-01
5.1470588234999992e-01  0.0000000000000000e+00  5.0000000000000003e-02
5.1470588234999992e-01  0.0000000000000000e+00  1.4999999999999999e-01
5.1470588234999992e-01  0.0000000000000000e+00  2.4999999999999997e-01
5.1470588234999992e-01  0.0000000000000000e+00  3.5000000000000003e-01
5.4411764704999999e-01  0.0000000000000000e+00  5.0000000000000003e-02
5.4411764704999999e-01  0.0000000000000000e+00  1.4999999999999999e-01
5.4411764704999988e-01  0.0000000000000000e+00  2.4999999999999997e-01
5.4411764704999988e-01  0.0000000000000000e+00  3.5000000000000003e-01
5.7352941175000016e-01  0.0000000000000000e+00  5.0000000000000010e-02
5.7352941174999994e-01  0.0000000000000000e+00  1.4999999999999999e-01
5.7352941174999994e-01  0.0000000000000000e+00  2.5000000000000000e-01
5.7352941174999994e-01  0.0000000000000000e+00  3.5000000000000003e-01
6.0294117645000000e-01  0.0000000000000000e+00  5.0000000000000003e-02
6.0294117644999989e-01  0.0000000000000000e+00  1.4999999999999999e-01
6.0294117644999989e-01  0.0000000000000000e+00  2.4999999999999997e-01
6.0294117645000000e-01  0.0000000000000000e+00  3.5000000000000003e-01
6.3235294114999996e-01  0.0000000000000000e+00  5.0000000000000010e-02
6.3235294114999996e-01  0.0000000000000000e+00  1.4999999999999999e-01
6.3235294114999996e-01  0.0000000000000000e+00  2.5000000000000000e-01
6.3235294115000007e-01  0.0000000000000000e+00  3.5000000000000003e-01
6.6176470585000002e-01  0.0000000000000000e+00  5.0000000000000010e-02
6.6176470584999991e-01  0.0000000000000000e+00  1.4999999999999999e-01
6.6176470585000002e-01  0.0000000000000000e+00  2.5000000000000000e-01
6.6176470585000002e-01  0.0000000000000000e+00  3.5000000000000003e-01
6.9117647054999998e-01  0.0000000000000000e+00  5.0000000000000003e-02
6.9117647054999998e-01  0.0000000000000000e+00  1.5000000000000005e-01
6.9117647054999987e-01  0.0000000000000000e+00  2.4999999999999997e-01
6.9117647054999987e-01  0.0000000000000000e+00  3.4999999999999992e-01
7.2058823525000004e-01  0.0000000000000000e+00  5.0000000000000010e-02
7.2058823524999993e-01  0.0000000000000000e+00  1.4999999999999999e-01
7.2058823524999982e-01  0.0000000000000000e+00  2.5000000000000000e-01
7.2058823525000004e-01  0.0000000000000000e+00  3.5000000000000003e-01
7.5000000000000000e-01  0.0000000000000000e+00  5.0000000000000003e-02
7.5000000000000000e-01  0.0000000000000000e+00  1.5000000000000002e-01
7.5000000000000000e-01  0.0000000000000000e+00  2.4999999999999997e-01
7.5000000000000000e-01  0.0000000000000000e+00  3.4999999999999998e-01
7.7941176475000018e-01  0.0000000000000000e+00  5.0000000000000010e-02
7.7941176475000007e-01  0.0000000000000000e+00  1.4999999999999999e-01
7.7941176475000007e-01  0.0000000000000000e+00  2.5000000000000000e-01
7.7941176475000018e-01  0.0000000000000000e+00  3.5000000000000003e-01
8.0882352945000002e-01  0.0000000000000000e+00  5.0000000000000003e-02
8.0882352944999980e-01  0.0000000000000000e+00  1.4999999999999999e-01
8.0882352944999991e-01  0.0000000000000000e+00  2.4999999999999997e-01
8.0882352944999991e-01  0.0000000000000000e+00  3.5000000000000003e-01
8.3823529414999987e-01  0.0000000000000000e+00  5.0000000000000003e-02
8.3823529414999987e-01  0.0000000000000000e+00  1.4999999999999999e-01
8.3823529414999987e-01  0.0000000000000000e+00  2.4999999999999997e-01
8.3823529415000009e-01  0.0000000000000000e+00  3.5000000000000003e-01
8.6764705885000004e-01  0.0000000000000000e+00  5.0000000000000010e-02
8.6764705884999982e-01  0.0000000000000000e+00  1.4999999999999999e-01
8.6764705884999993e-01  0.0000000000000000e+00  2.5000000000000000e-01
8.6764705884999993e-01  0.0000000000000000e+00  3.5000000000000003e-01
8.9705882354999988e-01  0.0000000000000000e+00  5.0000000000000003e-02
8.9705882355000011e-01  0.0000000000000000e+00  1.4999999999999999e-01
8.9705882354999988e-01  0.0000000000000000e+00  2.4999999999999997e-01
8.9705882355000000e-01  0.0000000000000000e+00  3.5000000000000003e-01
9.2647058825000006e-01  0.0000000000000000e+00  5.0000000000000003e-02
9.2647058824999973e-01  0.0000000000000000e+00  1.4999999999999999e-01
9.2647058824999984e-01  0.0000000000000000e+00  2.4999999999999997e-01
9.2647058824999995e-01  0.0000000000000000e+00  3.5000000000000003e-01
9.5588235294999990e-01  0.0000000000000000e+00  5.0000000000000003e-02
9.5588235295000012e-01  0.0000000000000000e+00  1.4999999999999999e-01
9.5588235295000012e-01  0.0000000000000000e+00  2.4999999999999997e-01
9.5588235294999979e-01  0.0000000000000000e+00  3.5000000000000003e-01
9.8529411765000030e-01  0.0000000000000000e+00  5.0000000000000010e-02
9.8529411764999986e-01  0.0000000000000000e+00  1.4999999999999999e-01
9.8529411764999997e-01  0.0000000000000000e+00  2.5000000000000000e-01
9.8529411765000008e-01  0.0000000000000000e+00  3.5000000000000003e-01

CELLS 0 0


CELL_TYPES 0


POINT_DATA 136

VECTORS VertexNormals float

0.0000000000000000e+00 0.0000000000000000e+00 0.0000000000000000e+00 
0.0000000000000000e+00 0.0000000000000000e+00 0.0000000000000000e+00 
0.0000000000000000e+00 0.0000000000000000e+00 0.0000000000000000e+00 
0.0000000000000000e+00 0.0000000000000000e+00 0.0000000000000000e+00 
0.0000000000000000e+00 0.0000000000000000e+00 0.0000000000000000e+00 
0.0000000000000000e+00 0.0000000000000000e+00 0.0000000000000000e+00 
0.0000000000000000e+00 0.0000000000000000e+00 0.0000000000000000e+00 
0.0000000000000000e+00 0.0000000000000000e+00 0.0000000000000000e+00 
0.0000000000000000e+00 0.0000000000000000e+00 0.0000000000000000e+00 
0.0000000000000000e+00 0.0000000000000000e+00 0.0000000000000000e+00 
0.0000000000000000e+00 0.0000000000000000e+00 0.0000000000000000e+00 
0.0000000000000000e+00 0.0000000000000000e+00 0.0000000000000000e+00 
0.0000000000000000e+00 0.0000000000000000e+00 0.0000000000000000e+00 
0.0000000000000000e+00 0.0000000000000000e+00 0.0000000000000000e+00 
0.0000000000000000e+00 0.0000000000000000e+00 0.0000000000000000e+00 
0.0000000000000000e+00 0.0000000000000000e+00 0.0000000000000000e+00 
0.0000000000000000e+00 0.0000000000000000e+00 0.0000000000000000e+00 
0.0000000000000000e+00 0.0000000000000000e+00 0.0000000000000000e+00 
0.0000000000000000e+00 0.0000000000000000e+00 0.0000000000000000e+00 
0.0000000000000000e+00 0.0000000000000000e+00 0.0000000000000000e+00 
0.0000000000000000e+00 0.0000000000000000e+00 0.0000000000000000e+00 
0.0000000000000000e+00 0.0000000000000000e+00 0.0000000000000000e+00 
0.0000000000000000e+00 0.0000000000000000e+00 0.0000000000000000e+00 
0.0000000000000000e+00 0.0000000000000000e+00 0.0000000000000000e+00 
0.0000000000000000e+00 0.0000000000000000e+00 0.0000000000000000e+00 
0.0000000000000000e+00 0.0000000000000000e+00 0.0000000000000000e+00 
0.0000000000000000e+00 0.0000000000000000e+00 0.0000000000000000e+00 
0.0000000000000000e+00 0.0000000000000000e+00 0.0000000000000000e+00 
0.0000000000000000e+00 0.0000000000000000e+00 0.0000000000000000e+00 
0.0000000000000000e+00 0.0000000000000000e+00 0.0000000000000000e+00 
0.0000000000000000e+00 0.0000000000000000e+00 0.0000000000000000e+00 
0.0000000000000000e+00 0.0000000000000000e+00 0.0000000000000000e+00 
0.0000000000000000e+00 0.0000000000000000e+00 0.0000000000000000e+00 
0.0000000000000000e+00 0.0000000000000000e+00 0.0000000000000000e+00 
0.0000000000000000e+00 0.0000000000000000e+00 0.0000000000000000e+00 
0.0000000000000000e+00 0.0000000000000000e+00 0.0000000000000000e+00 
0.0000000000000000e+00 0.0000000000000000e+00 0.0000000000000000e+00 
0.0000000000000000e+00 0.0000000000000000e+00 0.0000000000000000e+00 
0.0000000000000000e+00 0.0000000000000000e+00 0.0000000000000000e+00 
0.0000000000000000e+00 0.0000000000000000e+00 0.0000000000000000e+00 
0.0000000000000000e+00 0.0000000000000000e+00 0.0000000000000000e+00 
0.0000000000000000e+00 0.0000000000000000e+00 0.0000000000000000e+00 
0.0000000000000000e+00 0.0000000000000000e+00 0.0000000000000000e+00 
0.0000000000000000e+00 0.0000000000000000e+00 0.0000000000000000e+00 
0.0000000000000000e+00 0.0000000000000000e+00 0.0000000000000000e+00 
0.0000000000000000e+00 0.0000000000000000e+00 0.0000000000000000e+00 
0.0000000000000000e+00 0.0000000000000000e+00 0.0000000000000000e+00 
0.0000000000000000e+00 0.0000000000000000e+00 0.0000000000000000e+00 
0.0000000000000000e+00 0.0000000000000000e+00 0.0000000000000000e+00 
0.0000000000000000e+00 0.0000000000000000e+00 0.0000000000000000e+00 
0.0000000000000000e+00 0.0000000000000000e+00 0.0000000000000000e+00 
0.0000000000000000e+00 0.0000000000000000e+00 0.0000000000000000e+00 
0.0000000000000000e+00 0.0000000000000000e+00 0.0000000000000000e+00 
0.0000000000000000e+00 0.0000000000000000e+00 0.0000000000000000e+00 
0.0000000000000000e+00 0.0000000000000000e+00 0.0000000000000000e+00 
0.0000000000000000e+00 0.0000000000000000e+00 0.0000000000000000e+00 
0.0000000000000000e+00 0.0000000000000000e+00 0.0000000000000000e+00 
0.0000000000000000e+00 0.0000000000000000e+00 0.0000000000000000e+00 
0.0000000000000000e+00 0.0000000000000000e+00 0.0000000000000000e+00 
0.0000000000000000e+00 0.0000000000000000e+00 0.0000000000000000e+00 
0.0000000000000000e+00 0.0000000000000000e+00 0.0000000000000000e+00 
0.0000000000000000e+00 0.0000000000000000e+00 0.0000000000000000e+00 
0.0000000000000000e+00 0.0000000000000000e+00 0.0000000000000000e+00 
0.0000000000000000e+00 0.0000000000000000e+00 0.0000000000000000e+00 
0.0000000000000000e+00 0.0000000000000000e+00 0.0000000000000000e+00 
0.0000000000000000e+00 0.0000000000000000e+00 0.0000000000000000e+00 
0.0000000000000000e+00 0.0000000000000000e+00 0.0000000000000000e+00 
0.0000000000000000e+00 0.0000000000000000e+00 0.0000000000000000e+00 
0.0000000000000000e+00 0.0000000000000000e+00 0.0000000000000000e+00 
0.0000000000000000e+00 0.0000000000000000e+00 0.0000000000000000e+00 
0.0000000000000000e+00 0.0000000000000000e+00 0.0000000000000000e+00 
0.0000000000000000e+00 0.0000000000000000e+00 0.0000000000000000e+00 
0.0000000000000000e+00 0.0000000000000000e+00 0.0000000000000000e+00 
0.0000000000000000e+00 0.0000000000000000e+00 0.0000000000000000e+00 
0.0000000000000000e+00 0.0000000000000000e+00 0.0000000000000000e+00 
0.0000000000000000e+00 0.0000000000000000e+00 0.0000000000000000e+00 
0.0000000000000000e+00 0.0000000000000000e+00 0.0000000000000000e+00 
0.0000000000000000e+00 0.0000000000000000e+00 0.0000000000000000e+00 
0.0000000000000000e+00 0.0000000000000000e+00 0.0000000000000000e+00 
0.0000000000000000e+00 0.0000000000000000e+00 0.0000000000000000e+00 
0.0000000000000000e+00 0.0000000000000000e+00 0.0000000000000000e+00 
0.0000000000000000e+00 0.0000000000000000e+00 0.0000000000000000e+00 
0.0000000000000000e+00 0.0000000000000000e+00 0.0000000000000000e+00 
0.0000000000000000e+00 0.0000000000000000e+00 0.0000000000000000e+00 
0.0000000000000000e+00 0.0000000000000000e+00 0.0000000000000000e+00 
0.0000000000000000e+00 0.0000000000000000e+00 0.0000000000000000e+00 
0.0000000000000000e+00 0.0000000000000000e+00 0.0000000000000000e+00 
0.0000000000000000e+00 0.0000000000000000e+00 0.0000000000000000e+00 
0.0000000000000000e+00 0.0000000000000000e+00 0.0000000000000000e+00 
0.0000000000000000e+00 0.0000000000000000e+00 0.0000000000000000e+00 
0.0000000000000000e+00 0.0000000000000000e+00 0.0000000000000000e+00 
0.0000000000000000e+00 0.0000000000000000e+00 0.0000000000000000e+00 
0.0000000000000000e+00 0.0000000000000000e+00 0.0000000000000000e+00 
0.0000000000000000e+00 0.0000000000000000e+00 0.0000000000000000e+00 
0.0000000000000000e+00 0.0000000000000000e+00 0.0000000000000000e+00 
0.0000000000000000e+00 0.0000000000000000e+00 0.0000000000000000e+00 
0.0000000000000000e+00 0.0000000000000000e+00 0.0000000000000000e+00 
0.0000000000000000e+00 0.0000000000000000e+00 0.0000000000000000e+00 
0.0000000000000000e+00 0.0000000000000000e+00 0.0000000000000000e+00 
0.0000000000000000e+00 0.0000000000000000e+00 0.0000000000000000e+00 
0.0000000000000000e+00 0.0000000000000000e+00 0.0000000000000000e+00 
0.0000000000000000e+00 0.0000000000000000e+00 0.0000000000000000e+00 
0.0000000000000000e+00 0.0000000000000000e+00 0.0000000000000000e+00 
0.0000000000000000e+00 0.0000000000000000e+00 0.0000000000000000e+00 
0.0000000000000000e+00 0.0000000000000000e+00 0.0000000000000000e+00 
0.0000000000000000e+00 0.0000000000000000e+00 0.0000000000000000e+00 
0.0000000000000000e+00 0.0000000000000000e+00 0.0000000000000000e+00 
0.0000000000000000e+00 0.0000000000000000e+00 0.0000000000000000e+00 
0.0000000000000000e+00 0.0000000000000000e+00 0.0000000000000000e+00 
0.0000000000000000e+00 0.0000000000000000e+00 0.0000000000000000e+00 
0.0000000000000000e+00 0.0000000000000000e+00 0.0000000000000000e+00 
0.0000000000000000e+00 0.0000000000000000e+00 0.0000000000000000e+00 
0.0000000000000000e+00 0.0000000000000000e+00 0.0000000000000000e+00 
0.0000000000000000e+00 0.0000000000000000e+00 0.0000000000000000e+00 
0.0000000000000000e+00 0.0000000000000000e+00 0.0000000000000000e+00 
0.0000000000000000e+00 0.0000000000000000e+00 0.0000000000000000e+00 
0.0000000000000000e+00 0.0000000000000000e+00 0.0000000000000000e+00 
0.0000000000000000e+00 0.0000000000000000e+00 0.0000000000000000e+00 
0.0000000000000000e+00 0.0000000000000000e+00 0.0000000000000000e+00 
0.0000000000000000e+00 0.0000000000000000e+00 0.0000000000000000e+00 
0.0000000000000000e+00 0.0000000000000000e+00 0.0000000000000000e+00 
0.0000000000000000e+00 0.0000000000000000e+00 0.0000000000000000e+00 
0.0000000000000000e+00 0.0000000000000000e+00 0.0000000000000000e+00 
0.0000000000000000e+00 0.0000000000000000e+00 0.0000000000000000e+00 
0.0000000000000000e+00 0.0000000000000000e+00 0.0000000000000000e+00 
0.0000000000000000e+00 0.0000000000000000e+00 0.0000000000000000e+00 
0.0000000000000000e+00 0.0000000000000000e+00 0.0000000000000000e+00 
0.0000000000000000e+00 0.0000000000000000e+00 0.0000000000000000e+00 
0.0000000000000000e+00 0.0000000000000000e+00 0.0000000000000000e+00 
0.0000000000000000e+00 0.0000000000000000e+00 0.0000000000000000e+00 
0.0000000000000000e+00 0.0000000000000000e+00 0.0000000000000000e+00 
0.0000000000000000e+00 0.0000000000000000e+00 0.0000000000000000e+00 
0.0000000000000000e+00 0.0000000000000000e+00 0.0000000000000000e+00 
0.0000000000000000e+00 0.0000000000000000e+00 0.0000000000000000e+00 
0.0000000000000000e+00 0.0000000000000000e+00 0.0000000000000000e+00 
0.0000000000000000e+00 0.0000000000000000e+00 0.0000000000000000e+00 

SCALARS Temperature float
LOOKUP_TABLE default
3.0160889046630291e+02
3.0160889242069800e+02
3.0160889242069800e+02
3.0160889186992074e+02
3.0175304439672425e+02
3.0175304421267361e+02
3.0175304421267361e+02
3.0175304498356843e+02
3.0181905680119883e+02
3.0181905806836170e+02
3.0181905806836170e+02
3.0181905787566689e+02
3.0185784584823699e+02
3.0185784706445560e+02
3.0185784706445560e+02
3.0185784709091337e+02
3.0187851016417545e+02
3.0187851149576437e+02
3.0187851149576437e+02
3.0187851131197721e+02
3.0189025157769078e+02
3.0189025303476211e+02
3.0189025303476211e+02
3.0189025254447211e+02
3.0189651185074632e+02
3.0189651327645896e+02
3.0189651327645896e+02
3.0189651286046768e+02
3.0189998614942601e+02
3.0189998752549286e+02
3.0189998752549286e+02
3.0189998717233016e+02
3.0190212978279499e+02
3.0190213110163774e+02
3.0190213110163774e+02
3.0190213087967709e+02
3.0190348149959192e+02
3.0190348269175308e+02
3.0190348269175308e+02
3.0190348264132973e+02
3.0190426053465410e+02
3.0190426171715484e+02
3.0190426171715484e+02
3.0190426177103450e+02
3.0190476665521203e+02
3.0190476785491046e+02
3.0190476785491046e+02
3.0190476791854911e+02
3.0190507839820179e+02
3.0190507967732776e+02
3.0190507967732776e+02
3.0190507970975847e+02
3.0190525741626919e+02
3.0190525861132716e+02
3.0190525861132716e+02
3.0190525867800062e+02
3.0190534452030602e+02
3.0190534573883519e+02
3.0190534573883519e+02
3.0190534586300680e+02
3.0190537986044080e+02
3.0190538103125874e+02
3.0190538103125874e+02
3.0190538112804751e+02
3.0190536075047169e+02
3.0190536199471046e+02
3.0190536199471046e+02
3.0190536211067115e+02
3.0190531125550501e+02
3.0190531253760798e+02
3.0190531253760798e+02
3.0190531264756135e+02
3.0190520925550737e+02
3.0190521050741000e+02
3.0190521050741000e+02
3.0190521072480942e+02
3.0190505088212592e+02
3.0190505206392254e+02
3.0190505206392254e+02
3.0190505230978664e+02
3.0190485580716518e+02
3.0190485699324563e+02
3.0190485699324563e+02
3.0190485725841313e+02
3.0190452945596206e+02
3.0190453084206496e+02
3.0190453084206496e+02
3.0190453099763511e+02
3.0190410919791776e+02
3.0190411072685663e+02
3.0190411072685663e+02
3.0190411068560246e+02
3.0190349953879223e+02
3.0190350118903399e+02
3.0190350118903399e+02
3.0190350111163207e+02
3.0190260679301355e+02
3.0190260826821049e+02
3.0190260826821049e+02
3.0190260821557888e+02
3.0190127074353069e+02
3.0190127225995639e+02
3.0190127225995639e+02
3.0190127216006476e+02
3.0189920718308571e+02
3.0189920925218695e+02
3.0189920925218695e+02
3.0189920884703173e+02
3.0189587117658391e+02
3.0189587305074912e+02
3.0189587305074912e+02
3.0189587254784800e+02
3.0189002421736296e+02
3.0189002581080996e+02
3.0189002581080996e+02
3.0189002550459213e+02
3.0188165791682241e+02
3.0188165961849325e+02
3.0188165961849325e+02
3.0188165930725245e+02
3.0186183155368258e+02
3.0186183334203946e+02
3.0186183334203946e+02
3.0186183313961254e+02
3.0183172009836954e+02
3.0183172171779194e+02
3.0183172171779194e+02
3.0183172131735370e+02
3.0174832222604721e+02
3.0174832324146314e+02
3.0174832324146314e+02
3.0174832310876485e+02
3.0160200513788692e+02
3.0160200618361824e+02
3.0160200618361824e+02
3.0160200597341708e+02

SCALARS Heat-Flux float
LOOKUP_TABLE default
3.7399607655817808e+03
3.7399679125468538e+03
3.7399702924565654e+03
3.7399621523538372e+03
3.2106335352611486e+03
3.2106363020851859e+03
3.2106376353011001e+03
3.2106339499565365e+03
3.1613199653031197e+03
3.1613218242317089e+03
3.1613234702766940e+03
3.1613206147027086e+03
3.1516762249768371e+03
3.1516780594436568e+03
3.1516795486655610e+03
3.1516769546513387e+03
3.1638999720853462e+03
3.1639016229622939e+03
3.1639032343504359e+03
3.1639009110782345e+03
3.1747338693901838e+03
3.1747354001847270e+03
3.1747370947450690e+03
3.1747351457277537e+03
3.1850270936869492e+03
3.1850284721702337e+03
3.1850301674116063e+03
3.1850281787934364e+03
3.1925714368415347e+03
3.1925731109229664e+03
3.1925748460977047e+03
3.1925724708824418e+03
3.1972938589096875e+03
3.1972958935337365e+03
3.1972976919969369e+03
3.1972948168848234e+03
3.2003411532095924e+03
3.2003425339207752e+03
3.2003443875371886e+03
3.2003421840956435e+03
3.2027141015780217e+03
3.2027155353098351e+03
3.2027174462738913e+03
3.2027152666094489e+03
3.2042078525882971e+03
3.2042087777983397e+03
3.2042107551140361e+03
3.2042091725510545e+03
3.2052405233363970e+03
3.2052415204670979e+03
3.2052435634097501e+03
3.2052420359555990e+03
3.2059620282656397e+03
3.2059630246047163e+03
3.2059651224466506e+03
3.2059638731414452e+03
3.2064638976073184e+03
3.2064645776663383e+03
3.2064667225582516e+03
3.2064656543028823e+03
3.2067411853597150e+03
3.2067423779066312e+03
3.2067445579792557e+03
3.2067432793148337e+03
3.2069235717870470e+03
3.2069245718361335e+03
3.2069267878439859e+03
3.2069255487600458e+03
3.2069165233231615e+03
3.2069170048132946e+03
3.2069192544833641e+03
3.2069184648898940e+03
3.2068352748472535e+03
3.2068362967700523e+03
3.2068385773396585e+03
3.2068370454449905e+03
3.2066539688952616e+03
3.2066547358386742e+03
3.2066570419126947e+03
3.2066560257873780e+03
3.2061671437353652e+03
3.2061680425686063e+03
3.2061703856525128e+03
3.2061693652831309e+03
3.2056679131652336e+03
3.2056688265576668e+03
3.2056712328871072e+03
3.2056701029214300e+03
3.2047135972963588e+03
3.2047155446882243e+03
3.2047180408961131e+03
3.2047162256487354e+03
3.2033570726591279e+03
3.2033590968538192e+03
3.2033616987697324e+03
3.2033590618702874e+03
3.2013632482099629e+03
3.2013663503363205e+03
3.2013689942628844e+03
3.2013655544513313e+03
3.1984085582116668e+03
3.1984117822954422e+03
3.1984143673929793e+03
3.1984107475553174e+03
3.1939915377406578e+03
3.1939923726073175e+03
3.1939948328181345e+03
3.1939930708693273e+03
3.1874349021367370e+03
3.1874384468959752e+03
3.1874407870731384e+03
3.1874369865705376e+03
3.1798767897445941e+03
3.1798781852397951e+03
3.1798804191988893e+03
3.1798781658537323e+03
3.1593838189386579e+03
3.1593854895247196e+03
3.1593876051520047e+03
3.1593853252132249e+03
3.1533693452147418e+03
3.1533723320295394e+03
3.1533740813240011e+03
3.1533693956604102e+03
3.1128920396397007e+03
3.1128937121880881e+03
3.1128952377963278e+03
3.1128931008490313e+03
3.2375602960506512e+03
3.2375626639062830e+03
3.2375642657236322e+03
3.2375605635897955e+03
3.7518164993743994e+03
3.7518184870736141e+03
3.7518194844415120e+03
3.7518177760030076e+03

