# vtk DataFile Version 2.0

ASCII

DATASET UNSTRUCTURED_GRID

POINTS 136 float 

1.4705882355000000e-02  0.0000000000000000e+00  4.9999999999999996e-02
1.4705882355000000e-02  0.0000000000000000e+00  1.4999999999999999e-01
1.4705882355000000e-02  0.0000000000000000e+00  2.4999999999999997e-01
1.4705882355000000e-02  0.0000000000000000e+00  3.4999999999999998e-01
4.4117647059999994e-02  0.0000000000000000e+00  5.0000000000000003e-02
4.4117647059999994e-02  0.0000000000000000e+00  1.5000000000000002e-01
4.4117647059999994e-02  0.0000000000000000e+00  2.5000000000000000e-01
4.4117647060000001e-02  0.0000000000000000e+00  3.4999999999999998e-01
7.3529411764999983e-02  0.0000000000000000e+00  5.0000000000000010e-02
7.3529411764999983e-02  0.0000000000000000e+00  1.5000000000000002e-01
7.3529411764999997e-02  0.0000000000000000e+00  2.5000000000000000e-01
7.3529411764999997e-02  0.0000000000000000e+00  3.4999999999999998e-01
1.0294117645999996e-01  0.0000000000000000e+00  4.9999999999999989e-02
1.0294117646000002e-01  0.0000000000000000e+00  1.5000000000000002e-01
1.0294117645999999e-01  0.0000000000000000e+00  2.5000000000000000e-01
1.0294117645999998e-01  0.0000000000000000e+00  3.4999999999999998e-01
1.3235294114999999e-01  0.0000000000000000e+00  4.9999999999999996e-02
1.3235294114999999e-01  0.0000000000000000e+00  1.5000000000000002e-01
1.3235294114999999e-01  0.0000000000000000e+00  2.4999999999999997e-01
1.3235294114999999e-01  0.0000000000000000e+00  3.4999999999999992e-01
1.6176470585000000e-01  0.0000000000000000e+00  5.0000000000000003e-02
1.6176470584999997e-01  0.0000000000000000e+00  1.4999999999999999e-01
1.6176470585000000e-01  0.0000000000000000e+00  2.4999999999999997e-01
1.6176470585000000e-01  0.0000000000000000e+00  3.5000000000000003e-01
1.9117647054999998e-01  0.0000000000000000e+00  5.0000000000000003e-02
1.9117647054999998e-01  0.0000000000000000e+00  1.4999999999999999e-01
1.9117647055000000e-01  0.0000000000000000e+00  2.4999999999999997e-01
1.9117647054999998e-01  0.0000000000000000e+00  3.5000000000000003e-01
2.2058823524999999e-01  0.0000000000000000e+00  5.0000000000000003e-02
2.2058823524999999e-01  0.0000000000000000e+00  1.5000000000000002e-01
2.2058823524999999e-01  0.0000000000000000e+00  2.5000000000000000e-01
2.2058823524999999e-01  0.0000000000000000e+00  3.5000000000000003e-01
2.5000000000000000e-01  0.0000000000000000e+00  4.9999999999999996e-02
2.5000000000000000e-01  0.0000000000000000e+00  1.5000000000000005e-01
2.5000000000000000e-01  0.0000000000000000e+00  2.5000000000000000e-01
2.5000000000000000e-01  0.0000000000000000e+00  3.4999999999999998e-01
2.7941176474999996e-01  0.0000000000000000e+00  5.0000000000000003e-02
2.7941176474999996e-01  0.0000000000000000e+00  1.4999999999999999e-01
2.7941176475000001e-01  0.0000000000000000e+00  2.5000000000000000e-01
2.7941176474999990e-01  0.0000000000000000e+00  3.4999999999999992e-01
3.0882352944999997e-01  0.0000000000000000e+00  5.0000000000000003e-02
3.0882352945000002e-01  0.0000000000000000e+00  1.5000000000000002e-01
3.0882352945000002e-01  0.0000000000000000e+00  2.4999999999999997e-01
3.0882352945000002e-01  0.0000000000000000e+00  3.4999999999999992e-01
3.3823529414999998e-01  0.0000000000000000e+00  5.0000000000000003e-02
3.3823529415000003e-01  0.0000000000000000e+00  1.4999999999999999e-01
3.3823529414999998e-01  0.0000000000000000e+00  2.5000000000000000e-01
3.3823529414999992e-01  0.0000000000000000e+00  3.4999999999999992e-01
3.6764705885000004e-01  0.0000000000000000e+00  5.0000000000000003e-02
3.6764705885000004e-01  0.0000000000000000e+00  1.4999999999999999e-01
3.6764705885000004e-01  0.0000000000000000e+00  2.5000000000000000e-01
3.6764705884999999e-01  0.0000000000000000e+00  3.4999999999999992e-01
3.9705882354999994e-01  0.0000000000000000e+00  5.0000000000000003e-02
3.9705882355000005e-01  0.0000000000000000e+00  1.4999999999999999e-01
3.9705882355000000e-01  0.0000000000000000e+00  2.5000000000000000e-01
3.9705882355000000e-01  0.0000000000000000e+00  3.4999999999999992e-01
4.2647058824999995e-01  0.0000000000000000e+00  5.0000000000000003e-02
4.2647058824999989e-01  0.0000000000000000e+00  1.4999999999999999e-01
4.2647058824999995e-01  0.0000000000000000e+00  2.4999999999999997e-01
4.2647058825000006e-01  0.0000000000000000e+00  3.5000000000000003e-01
4.5588235295000001e-01  0.0000000000000000e+00  5.0000000000000003e-02
4.5588235295000001e-01  0.0000000000000000e+00  1.4999999999999999e-01
4.5588235295000001e-01  0.0000000000000000e+00  2.5000000000000000e-01
4.5588235294999990e-01  0.0000000000000000e+00  3.4999999999999992e-01
4.8529411764999991e-01  0.0000000000000000e+00  5.0000000000000003e-02
4.8529411764999991e-01  0.0000000000000000e+00  1.4999999999999999e-01
4.8529411765000002e-01  0.0000000000000000e+00  2.5000000000000000e-01
4.8529411765000002e-01  0.0000000000000000e+00  3.4999999999999992e-01
5.1470588234999992e-01  0.0000000000000000e+00  5.0000000000000003e-02
5.1470588234999992e-01  0.0000000000000000e+00  1.4999999999999999e-01
5.1470588234999992e-01  0.0000000000000000e+00  2.4999999999999997e-01
5.1470588234999992e-01  0.0000000000000000e+00  3.5000000000000003e-01
5.4411764704999999e-01  0.0000000000000000e+00  5.0000000000000003e-02
5.4411764704999999e-01  0.0000000000000000e+00  1.4999999999999999e-01
5.4411764704999988e-01  0.0000000000000000e+00  2.4999999999999997e-01
5.4411764704999988e-01  0.0000000000000000e+00  3.5000000000000003e-01
5.7352941175000016e-01  0.0000000000000000e+00  5.0000000000000010e-02
5.7352941174999994e-01  0.0000000000000000e+00  1.4999999999999999e-01
5.7352941174999994e-01  0.0000000000000000e+00  2.5000000000000000e-01
5.7352941174999994e-01  0.0000000000000000e+00  3.5000000000000003e-01
6.0294117645000000e-01  0.0000000000000000e+00  5.0000000000000003e-02
6.0294117644999989e-01  0.0000000000000000e+00  1.4999999999999999e-01
6.0294117644999989e-01  0.0000000000000000e+00  2.4999999999999997e-01
6.0294117645000000e-01  0.0000000000000000e+00  3.5000000000000003e-01
6.3235294114999996e-01  0.0000000000000000e+00  5.0000000000000010e-02
6.3235294114999996e-01  0.0000000000000000e+00  1.4999999999999999e-01
6.3235294114999996e-01  0.0000000000000000e+00  2.5000000000000000e-01
6.3235294115000007e-01  0.0000000000000000e+00  3.5000000000000003e-01
6.6176470585000002e-01  0.0000000000000000e+00  5.0000000000000010e-02
6.6176470584999991e-01  0.0000000000000000e+00  1.4999999999999999e-01
6.6176470585000002e-01  0.0000000000000000e+00  2.5000000000000000e-01
6.6176470585000002e-01  0.0000000000000000e+00  3.5000000000000003e-01
6.9117647054999998e-01  0.0000000000000000e+00  5.0000000000000003e-02
6.9117647054999998e-01  0.0000000000000000e+00  1.5000000000000005e-01
6.9117647054999987e-01  0.0000000000000000e+00  2.4999999999999997e-01
6.9117647054999987e-01  0.0000000000000000e+00  3.4999999999999992e-01
7.2058823525000004e-01  0.0000000000000000e+00  5.0000000000000010e-02
7.2058823524999993e-01  0.0000000000000000e+00  1.4999999999999999e-01
7.2058823524999982e-01  0.0000000000000000e+00  2.5000000000000000e-01
7.2058823525000004e-01  0.0000000000000000e+00  3.5000000000000003e-01
7.5000000000000000e-01  0.0000000000000000e+00  5.0000000000000003e-02
7.5000000000000000e-01  0.0000000000000000e+00  1.5000000000000002e-01
7.5000000000000000e-01  0.0000000000000000e+00  2.4999999999999997e-01
7.5000000000000000e-01  0.0000000000000000e+00  3.4999999999999998e-01
7.7941176475000018e-01  0.0000000000000000e+00  5.0000000000000010e-02
7.7941176475000007e-01  0.0000000000000000e+00  1.4999999999999999e-01
7.7941176475000007e-01  0.0000000000000000e+00  2.5000000000000000e-01
7.7941176475000018e-01  0.0000000000000000e+00  3.5000000000000003e-01
8.0882352945000002e-01  0.0000000000000000e+00  5.0000000000000003e-02
8.0882352944999980e-01  0.0000000000000000e+00  1.4999999999999999e-01
8.0882352944999991e-01  0.0000000000000000e+00  2.4999999999999997e-01
8.0882352944999991e-01  0.0000000000000000e+00  3.5000000000000003e-01
8.3823529414999987e-01  0.0000000000000000e+00  5.0000000000000003e-02
8.3823529414999987e-01  0.0000000000000000e+00  1.4999999999999999e-01
8.3823529414999987e-01  0.0000000000000000e+00  2.4999999999999997e-01
8.3823529415000009e-01  0.0000000000000000e+00  3.5000000000000003e-01
8.6764705885000004e-01  0.0000000000000000e+00  5.0000000000000010e-02
8.6764705884999982e-01  0.0000000000000000e+00  1.4999999999999999e-01
8.6764705884999993e-01  0.0000000000000000e+00  2.5000000000000000e-01
8.6764705884999993e-01  0.0000000000000000e+00  3.5000000000000003e-01
8.9705882354999988e-01  0.0000000000000000e+00  5.0000000000000003e-02
8.9705882355000011e-01  0.0000000000000000e+00  1.4999999999999999e-01
8.9705882354999988e-01  0.0000000000000000e+00  2.4999999999999997e-01
8.9705882355000000e-01  0.0000000000000000e+00  3.5000000000000003e-01
9.2647058825000006e-01  0.0000000000000000e+00  5.0000000000000003e-02
9.2647058824999973e-01  0.0000000000000000e+00  1.4999999999999999e-01
9.2647058824999984e-01  0.0000000000000000e+00  2.4999999999999997e-01
9.2647058824999995e-01  0.0000000000000000e+00  3.5000000000000003e-01
9.5588235294999990e-01  0.0000000000000000e+00  5.0000000000000003e-02
9.5588235295000012e-01  0.0000000000000000e+00  1.4999999999999999e-01
9.5588235295000012e-01  0.0000000000000000e+00  2.4999999999999997e-01
9.5588235294999979e-01  0.0000000000000000e+00  3.5000000000000003e-01
9.8529411765000030e-01  0.0000000000000000e+00  5.0000000000000010e-02
9.8529411764999986e-01  0.0000000000000000e+00  1.4999999999999999e-01
9.8529411764999997e-01  0.0000000000000000e+00  2.5000000000000000e-01
9.8529411765000008e-01  0.0000000000000000e+00  3.5000000000000003e-01

CELLS 0 0


CELL_TYPES 0


POINT_DATA 136

VECTORS VertexNormals float

0.0000000000000000e+00 0.0000000000000000e+00 0.0000000000000000e+00 
0.0000000000000000e+00 0.0000000000000000e+00 0.0000000000000000e+00 
0.0000000000000000e+00 0.0000000000000000e+00 0.0000000000000000e+00 
0.0000000000000000e+00 0.0000000000000000e+00 0.0000000000000000e+00 
0.0000000000000000e+00 0.0000000000000000e+00 0.0000000000000000e+00 
0.0000000000000000e+00 0.0000000000000000e+00 0.0000000000000000e+00 
0.0000000000000000e+00 0.0000000000000000e+00 0.0000000000000000e+00 
0.0000000000000000e+00 0.0000000000000000e+00 0.0000000000000000e+00 
0.0000000000000000e+00 0.0000000000000000e+00 0.0000000000000000e+00 
0.0000000000000000e+00 0.0000000000000000e+00 0.0000000000000000e+00 
0.0000000000000000e+00 0.0000000000000000e+00 0.0000000000000000e+00 
0.0000000000000000e+00 0.0000000000000000e+00 0.0000000000000000e+00 
0.0000000000000000e+00 0.0000000000000000e+00 0.0000000000000000e+00 
0.0000000000000000e+00 0.0000000000000000e+00 0.0000000000000000e+00 
0.0000000000000000e+00 0.0000000000000000e+00 0.0000000000000000e+00 
0.0000000000000000e+00 0.0000000000000000e+00 0.0000000000000000e+00 
0.0000000000000000e+00 0.0000000000000000e+00 0.0000000000000000e+00 
0.0000000000000000e+00 0.0000000000000000e+00 0.0000000000000000e+00 
0.0000000000000000e+00 0.0000000000000000e+00 0.0000000000000000e+00 
0.0000000000000000e+00 0.0000000000000000e+00 0.0000000000000000e+00 
0.0000000000000000e+00 0.0000000000000000e+00 0.0000000000000000e+00 
0.0000000000000000e+00 0.0000000000000000e+00 0.0000000000000000e+00 
0.0000000000000000e+00 0.0000000000000000e+00 0.0000000000000000e+00 
0.0000000000000000e+00 0.0000000000000000e+00 0.0000000000000000e+00 
0.0000000000000000e+00 0.0000000000000000e+00 0.0000000000000000e+00 
0.0000000000000000e+00 0.0000000000000000e+00 0.0000000000000000e+00 
0.0000000000000000e+00 0.0000000000000000e+00 0.0000000000000000e+00 
0.0000000000000000e+00 0.0000000000000000e+00 0.0000000000000000e+00 
0.0000000000000000e+00 0.0000000000000000e+00 0.0000000000000000e+00 
0.0000000000000000e+00 0.0000000000000000e+00 0.0000000000000000e+00 
0.0000000000000000e+00 0.0000000000000000e+00 0.0000000000000000e+00 
0.0000000000000000e+00 0.0000000000000000e+00 0.0000000000000000e+00 
0.0000000000000000e+00 0.0000000000000000e+00 0.0000000000000000e+00 
0.0000000000000000e+00 0.0000000000000000e+00 0.0000000000000000e+00 
0.0000000000000000e+00 0.0000000000000000e+00 0.0000000000000000e+00 
0.0000000000000000e+00 0.0000000000000000e+00 0.0000000000000000e+00 
0.0000000000000000e+00 0.0000000000000000e+00 0.0000000000000000e+00 
0.0000000000000000e+00 0.0000000000000000e+00 0.0000000000000000e+00 
0.0000000000000000e+00 0.0000000000000000e+00 0.0000000000000000e+00 
0.0000000000000000e+00 0.0000000000000000e+00 0.0000000000000000e+00 
0.0000000000000000e+00 0.0000000000000000e+00 0.0000000000000000e+00 
0.0000000000000000e+00 0.0000000000000000e+00 0.0000000000000000e+00 
0.0000000000000000e+00 0.0000000000000000e+00 0.0000000000000000e+00 
0.0000000000000000e+00 0.0000000000000000e+00 0.0000000000000000e+00 
0.0000000000000000e+00 0.0000000000000000e+00 0.0000000000000000e+00 
0.0000000000000000e+00 0.0000000000000000e+00 0.0000000000000000e+00 
0.0000000000000000e+00 0.0000000000000000e+00 0.0000000000000000e+00 
0.0000000000000000e+00 0.0000000000000000e+00 0.0000000000000000e+00 
0.0000000000000000e+00 0.0000000000000000e+00 0.0000000000000000e+00 
0.0000000000000000e+00 0.0000000000000000e+00 0.0000000000000000e+00 
0.0000000000000000e+00 0.0000000000000000e+00 0.0000000000000000e+00 
0.0000000000000000e+00 0.0000000000000000e+00 0.0000000000000000e+00 
0.0000000000000000e+00 0.0000000000000000e+00 0.0000000000000000e+00 
0.0000000000000000e+00 0.0000000000000000e+00 0.0000000000000000e+00 
0.0000000000000000e+00 0.0000000000000000e+00 0.0000000000000000e+00 
0.0000000000000000e+00 0.0000000000000000e+00 0.0000000000000000e+00 
0.0000000000000000e+00 0.0000000000000000e+00 0.0000000000000000e+00 
0.0000000000000000e+00 0.0000000000000000e+00 0.0000000000000000e+00 
0.0000000000000000e+00 0.0000000000000000e+00 0.0000000000000000e+00 
0.0000000000000000e+00 0.0000000000000000e+00 0.0000000000000000e+00 
0.0000000000000000e+00 0.0000000000000000e+00 0.0000000000000000e+00 
0.0000000000000000e+00 0.0000000000000000e+00 0.0000000000000000e+00 
0.0000000000000000e+00 0.0000000000000000e+00 0.0000000000000000e+00 
0.0000000000000000e+00 0.0000000000000000e+00 0.0000000000000000e+00 
0.0000000000000000e+00 0.0000000000000000e+00 0.0000000000000000e+00 
0.0000000000000000e+00 0.0000000000000000e+00 0.0000000000000000e+00 
0.0000000000000000e+00 0.0000000000000000e+00 0.0000000000000000e+00 
0.0000000000000000e+00 0.0000000000000000e+00 0.0000000000000000e+00 
0.0000000000000000e+00 0.0000000000000000e+00 0.0000000000000000e+00 
0.0000000000000000e+00 0.0000000000000000e+00 0.0000000000000000e+00 
0.0000000000000000e+00 0.0000000000000000e+00 0.0000000000000000e+00 
0.0000000000000000e+00 0.0000000000000000e+00 0.0000000000000000e+00 
0.0000000000000000e+00 0.0000000000000000e+00 0.0000000000000000e+00 
0.0000000000000000e+00 0.0000000000000000e+00 0.0000000000000000e+00 
0.0000000000000000e+00 0.0000000000000000e+00 0.0000000000000000e+00 
0.0000000000000000e+00 0.0000000000000000e+00 0.0000000000000000e+00 
0.0000000000000000e+00 0.0000000000000000e+00 0.0000000000000000e+00 
0.0000000000000000e+00 0.0000000000000000e+00 0.0000000000000000e+00 
0.0000000000000000e+00 0.0000000000000000e+00 0.0000000000000000e+00 
0.0000000000000000e+00 0.0000000000000000e+00 0.0000000000000000e+00 
0.0000000000000000e+00 0.0000000000000000e+00 0.0000000000000000e+00 
0.0000000000000000e+00 0.0000000000000000e+00 0.0000000000000000e+00 
0.0000000000000000e+00 0.0000000000000000e+00 0.0000000000000000e+00 
0.0000000000000000e+00 0.0000000000000000e+00 0.0000000000000000e+00 
0.0000000000000000e+00 0.0000000000000000e+00 0.0000000000000000e+00 
0.0000000000000000e+00 0.0000000000000000e+00 0.0000000000000000e+00 
0.0000000000000000e+00 0.0000000000000000e+00 0.0000000000000000e+00 
0.0000000000000000e+00 0.0000000000000000e+00 0.0000000000000000e+00 
0.0000000000000000e+00 0.0000000000000000e+00 0.0000000000000000e+00 
0.0000000000000000e+00 0.0000000000000000e+00 0.0000000000000000e+00 
0.0000000000000000e+00 0.0000000000000000e+00 0.0000000000000000e+00 
0.0000000000000000e+00 0.0000000000000000e+00 0.0000000000000000e+00 
0.0000000000000000e+00 0.0000000000000000e+00 0.0000000000000000e+00 
0.0000000000000000e+00 0.0000000000000000e+00 0.0000000000000000e+00 
0.0000000000000000e+00 0.0000000000000000e+00 0.0000000000000000e+00 
0.0000000000000000e+00 0.0000000000000000e+00 0.0000000000000000e+00 
0.0000000000000000e+00 0.0000000000000000e+00 0.0000000000000000e+00 
0.0000000000000000e+00 0.0000000000000000e+00 0.0000000000000000e+00 
0.0000000000000000e+00 0.0000000000000000e+00 0.0000000000000000e+00 
0.0000000000000000e+00 0.0000000000000000e+00 0.0000000000000000e+00 
0.0000000000000000e+00 0.0000000000000000e+00 0.0000000000000000e+00 
0.0000000000000000e+00 0.0000000000000000e+00 0.0000000000000000e+00 
0.0000000000000000e+00 0.0000000000000000e+00 0.0000000000000000e+00 
0.0000000000000000e+00 0.0000000000000000e+00 0.0000000000000000e+00 
0.0000000000000000e+00 0.0000000000000000e+00 0.0000000000000000e+00 
0.0000000000000000e+00 0.0000000000000000e+00 0.0000000000000000e+00 
0.0000000000000000e+00 0.0000000000000000e+00 0.0000000000000000e+00 
0.0000000000000000e+00 0.0000000000000000e+00 0.0000000000000000e+00 
0.0000000000000000e+00 0.0000000000000000e+00 0.0000000000000000e+00 
0.0000000000000000e+00 0.0000000000000000e+00 0.0000000000000000e+00 
0.0000000000000000e+00 0.0000000000000000e+00 0.0000000000000000e+00 
0.0000000000000000e+00 0.0000000000000000e+00 0.0000000000000000e+00 
0.0000000000000000e+00 0.0000000000000000e+00 0.0000000000000000e+00 
0.0000000000000000e+00 0.0000000000000000e+00 0.0000000000000000e+00 
0.0000000000000000e+00 0.0000000000000000e+00 0.0000000000000000e+00 
0.0000000000000000e+00 0.0000000000000000e+00 0.0000000000000000e+00 
0.0000000000000000e+00 0.0000000000000000e+00 0.0000000000000000e+00 
0.0000000000000000e+00 0.0000000000000000e+00 0.0000000000000000e+00 
0.0000000000000000e+00 0.0000000000000000e+00 0.0000000000000000e+00 
0.0000000000000000e+00 0.0000000000000000e+00 0.0000000000000000e+00 
0.0000000000000000e+00 0.0000000000000000e+00 0.0000000000000000e+00 
0.0000000000000000e+00 0.0000000000000000e+00 0.0000000000000000e+00 
0.0000000000000000e+00 0.0000000000000000e+00 0.0000000000000000e+00 
0.0000000000000000e+00 0.0000000000000000e+00 0.0000000000000000e+00 
0.0000000000000000e+00 0.0000000000000000e+00 0.0000000000000000e+00 
0.0000000000000000e+00 0.0000000000000000e+00 0.0000000000000000e+00 
0.0000000000000000e+00 0.0000000000000000e+00 0.0000000000000000e+00 
0.0000000000000000e+00 0.0000000000000000e+00 0.0000000000000000e+00 
0.0000000000000000e+00 0.0000000000000000e+00 0.0000000000000000e+00 
0.0000000000000000e+00 0.0000000000000000e+00 0.0000000000000000e+00 
0.0000000000000000e+00 0.0000000000000000e+00 0.0000000000000000e+00 
0.0000000000000000e+00 0.0000000000000000e+00 0.0000000000000000e+00 
0.0000000000000000e+00 0.0000000000000000e+00 0.0000000000000000e+00 
0.0000000000000000e+00 0.0000000000000000e+00 0.0000000000000000e+00 
0.0000000000000000e+00 0.0000000000000000e+00 0.0000000000000000e+00 
0.0000000000000000e+00 0.0000000000000000e+00 0.0000000000000000e+00 

SCALARS Temperature float
LOOKUP_TABLE default
3.0000000174066059e+02
3.0000000174065752e+02
3.0000000174065752e+02
3.0000000174066076e+02
3.0000000170777531e+02
3.0000000170777429e+02
3.0000000170777429e+02
3.0000000170777560e+02
3.0000000170525249e+02
3.0000000170525271e+02
3.0000000170525271e+02
3.0000000170525288e+02
3.0000000170491700e+02
3.0000000170491774e+02
3.0000000170491774e+02
3.0000000170491751e+02
3.0000000170482542e+02
3.0000000170482662e+02
3.0000000170482662e+02
3.0000000170482571e+02
3.0000000170476551e+02
3.0000000170476642e+02
3.0000000170476642e+02
3.0000000170476596e+02
3.0000000170473635e+02
3.0000000170473709e+02
3.0000000170473709e+02
3.0000000170473618e+02
3.0000000170472651e+02
3.0000000170472680e+02
3.0000000170472680e+02
3.0000000170472657e+02
3.0000000170472515e+02
3.0000000170472555e+02
3.0000000170472555e+02
3.0000000170472515e+02
3.0000000170472794e+02
3.0000000170472822e+02
3.0000000170472822e+02
3.0000000170472754e+02
3.0000000170473010e+02
3.0000000170473021e+02
3.0000000170473021e+02
3.0000000170473010e+02
3.0000000170473180e+02
3.0000000170473129e+02
3.0000000170473129e+02
3.0000000170473118e+02
3.0000000170473180e+02
3.0000000170473203e+02
3.0000000170473203e+02
3.0000000170473220e+02
3.0000000170473254e+02
3.0000000170473294e+02
3.0000000170473294e+02
3.0000000170473294e+02
3.0000000170473271e+02
3.0000000170473265e+02
3.0000000170473265e+02
3.0000000170473271e+02
3.0000000170473311e+02
3.0000000170473339e+02
3.0000000170473339e+02
3.0000000170473288e+02
3.0000000170473356e+02
3.0000000170473385e+02
3.0000000170473385e+02
3.0000000170473328e+02
3.0000000170473356e+02
3.0000000170473373e+02
3.0000000170473373e+02
3.0000000170473334e+02
3.0000000170473339e+02
3.0000000170473345e+02
3.0000000170473345e+02
3.0000000170473277e+02
3.0000000170473226e+02
3.0000000170473248e+02
3.0000000170473248e+02
3.0000000170473282e+02
3.0000000170473197e+02
3.0000000170473152e+02
3.0000000170473152e+02
3.0000000170473169e+02
3.0000000170473174e+02
3.0000000170473169e+02
3.0000000170473169e+02
3.0000000170473135e+02
3.0000000170473163e+02
3.0000000170473118e+02
3.0000000170473118e+02
3.0000000170473191e+02
3.0000000170473123e+02
3.0000000170473180e+02
3.0000000170473180e+02
3.0000000170473129e+02
3.0000000170473157e+02
3.0000000170473163e+02
3.0000000170473163e+02
3.0000000170473140e+02
3.0000000170473163e+02
3.0000000170473140e+02
3.0000000170473140e+02
3.0000000170473180e+02
3.0000000170473237e+02
3.0000000170473157e+02
3.0000000170473157e+02
3.0000000170473174e+02
3.0000000170473237e+02
3.0000000170473243e+02
3.0000000170473243e+02
3.0000000170473260e+02
3.0000000170473237e+02
3.0000000170473226e+02
3.0000000170473226e+02
3.0000000170473226e+02
3.0000000170473248e+02
3.0000000170473299e+02
3.0000000170473299e+02
3.0000000170473277e+02
3.0000000170473322e+02
3.0000000170473328e+02
3.0000000170473328e+02
3.0000000170473277e+02
3.0000000170473294e+02
3.0000000170473299e+02
3.0000000170473299e+02
3.0000000170473305e+02
3.0000000170473260e+02
3.0000000170473345e+02
3.0000000170473345e+02
3.0000000170473265e+02
3.0000000170473277e+02
3.0000000170473265e+02
3.0000000170473265e+02
3.0000000170473282e+02

SCALARS Heat-Flux float
LOOKUP_TABLE default
0.0000000000000000e+00
0.0000000000000000e+00
0.0000000000000000e+00
0.0000000000000000e+00
0.0000000000000000e+00
0.0000000000000000e+00
0.0000000000000000e+00
0.0000000000000000e+00
0.0000000000000000e+00
0.0000000000000000e+00
0.0000000000000000e+00
0.0000000000000000e+00
0.0000000000000000e+00
0.0000000000000000e+00
0.0000000000000000e+00
0.0000000000000000e+00
0.0000000000000000e+00
0.0000000000000000e+00
0.0000000000000000e+00
0.0000000000000000e+00
0.0000000000000000e+00
0.0000000000000000e+00
0.0000000000000000e+00
0.0000000000000000e+00
0.0000000000000000e+00
0.0000000000000000e+00
0.0000000000000000e+00
0.0000000000000000e+00
0.0000000000000000e+00
0.0000000000000000e+00
0.0000000000000000e+00
0.0000000000000000e+00
0.0000000000000000e+00
0.0000000000000000e+00
0.0000000000000000e+00
0.0000000000000000e+00
0.0000000000000000e+00
0.0000000000000000e+00
0.0000000000000000e+00
0.0000000000000000e+00
0.0000000000000000e+00
0.0000000000000000e+00
0.0000000000000000e+00
0.0000000000000000e+00
0.0000000000000000e+00
0.0000000000000000e+00
0.0000000000000000e+00
0.0000000000000000e+00
0.0000000000000000e+00
0.0000000000000000e+00
0.0000000000000000e+00
0.0000000000000000e+00
0.0000000000000000e+00
0.0000000000000000e+00
0.0000000000000000e+00
0.0000000000000000e+00
0.0000000000000000e+00
0.0000000000000000e+00
0.0000000000000000e+00
0.0000000000000000e+00
0.0000000000000000e+00
0.0000000000000000e+00
0.0000000000000000e+00
0.0000000000000000e+00
0.0000000000000000e+00
0.0000000000000000e+00
0.0000000000000000e+00
0.0000000000000000e+00
0.0000000000000000e+00
0.0000000000000000e+00
0.0000000000000000e+00
0.0000000000000000e+00
0.0000000000000000e+00
0.0000000000000000e+00
0.0000000000000000e+00
0.0000000000000000e+00
0.0000000000000000e+00
0.0000000000000000e+00
0.0000000000000000e+00
0.0000000000000000e+00
0.0000000000000000e+00
0.0000000000000000e+00
0.0000000000000000e+00
0.0000000000000000e+00
0.0000000000000000e+00
0.0000000000000000e+00
0.0000000000000000e+00
0.0000000000000000e+00
0.0000000000000000e+00
0.0000000000000000e+00
0.0000000000000000e+00
0.0000000000000000e+00
0.0000000000000000e+00
0.0000000000000000e+00
0.0000000000000000e+00
0.0000000000000000e+00
0.0000000000000000e+00
0.0000000000000000e+00
0.0000000000000000e+00
0.0000000000000000e+00
0.0000000000000000e+00
0.0000000000000000e+00
0.0000000000000000e+00
0.0000000000000000e+00
0.0000000000000000e+00
0.0000000000000000e+00
0.0000000000000000e+00
0.0000000000000000e+00
0.0000000000000000e+00
0.0000000000000000e+00
0.0000000000000000e+00
0.0000000000000000e+00
0.0000000000000000e+00
0.0000000000000000e+00
0.0000000000000000e+00
0.0000000000000000e+00
0.0000000000000000e+00
0.0000000000000000e+00
0.0000000000000000e+00
0.0000000000000000e+00
0.0000000000000000e+00
0.0000000000000000e+00
0.0000000000000000e+00
0.0000000000000000e+00
0.0000000000000000e+00
0.0000000000000000e+00
0.0000000000000000e+00
0.0000000000000000e+00
0.0000000000000000e+00
0.0000000000000000e+00
0.0000000000000000e+00
0.0000000000000000e+00
0.0000000000000000e+00
0.0000000000000000e+00
0.0000000000000000e+00
0.0000000000000000e+00

