# vtk DataFile Version 2.0

ASCII

DATASET UNSTRUCTURED_GRID

POINTS 136 float 

1.4705882355000000e-02  0.0000000000000000e+00  4.9999999999999996e-02
1.4705882355000000e-02  0.0000000000000000e+00  1.4999999999999999e-01
1.4705882355000000e-02  0.0000000000000000e+00  2.4999999999999997e-01
1.4705882355000000e-02  0.0000000000000000e+00  3.4999999999999998e-01
4.4117647059999994e-02  0.0000000000000000e+00  5.0000000000000003e-02
4.4117647059999994e-02  0.0000000000000000e+00  1.5000000000000002e-01
4.4117647059999994e-02  0.0000000000000000e+00  2.5000000000000000e-01
4.4117647060000001e-02  0.0000000000000000e+00  3.4999999999999998e-01
7.3529411764999983e-02  0.0000000000000000e+00  5.0000000000000010e-02
7.3529411764999983e-02  0.0000000000000000e+00  1.5000000000000002e-01
7.3529411764999997e-02  0.0000000000000000e+00  2.5000000000000000e-01
7.3529411764999997e-02  0.0000000000000000e+00  3.4999999999999998e-01
1.0294117645999996e-01  0.0000000000000000e+00  4.9999999999999989e-02
1.0294117646000002e-01  0.0000000000000000e+00  1.5000000000000002e-01
1.0294117645999999e-01  0.0000000000000000e+00  2.5000000000000000e-01
1.0294117645999998e-01  0.0000000000000000e+00  3.4999999999999998e-01
1.3235294114999999e-01  0.0000000000000000e+00  4.9999999999999996e-02
1.3235294114999999e-01  0.0000000000000000e+00  1.5000000000000002e-01
1.3235294114999999e-01  0.0000000000000000e+00  2.4999999999999997e-01
1.3235294114999999e-01  0.0000000000000000e+00  3.4999999999999992e-01
1.6176470585000000e-01  0.0000000000000000e+00  5.0000000000000003e-02
1.6176470584999997e-01  0.0000000000000000e+00  1.4999999999999999e-01
1.6176470585000000e-01  0.0000000000000000e+00  2.4999999999999997e-01
1.6176470585000000e-01  0.0000000000000000e+00  3.5000000000000003e-01
1.9117647054999998e-01  0.0000000000000000e+00  5.0000000000000003e-02
1.9117647054999998e-01  0.0000000000000000e+00  1.4999999999999999e-01
1.9117647055000000e-01  0.0000000000000000e+00  2.4999999999999997e-01
1.9117647054999998e-01  0.0000000000000000e+00  3.5000000000000003e-01
2.2058823524999999e-01  0.0000000000000000e+00  5.0000000000000003e-02
2.2058823524999999e-01  0.0000000000000000e+00  1.5000000000000002e-01
2.2058823524999999e-01  0.0000000000000000e+00  2.5000000000000000e-01
2.2058823524999999e-01  0.0000000000000000e+00  3.5000000000000003e-01
2.5000000000000000e-01  0.0000000000000000e+00  4.9999999999999996e-02
2.5000000000000000e-01  0.0000000000000000e+00  1.5000000000000005e-01
2.5000000000000000e-01  0.0000000000000000e+00  2.5000000000000000e-01
2.5000000000000000e-01  0.0000000000000000e+00  3.4999999999999998e-01
2.7941176474999996e-01  0.0000000000000000e+00  5.0000000000000003e-02
2.7941176474999996e-01  0.0000000000000000e+00  1.4999999999999999e-01
2.7941176475000001e-01  0.0000000000000000e+00  2.5000000000000000e-01
2.7941176474999990e-01  0.0000000000000000e+00  3.4999999999999992e-01
3.0882352944999997e-01  0.0000000000000000e+00  5.0000000000000003e-02
3.0882352945000002e-01  0.0000000000000000e+00  1.5000000000000002e-01
3.0882352945000002e-01  0.0000000000000000e+00  2.4999999999999997e-01
3.0882352945000002e-01  0.0000000000000000e+00  3.4999999999999992e-01
3.3823529414999998e-01  0.0000000000000000e+00  5.0000000000000003e-02
3.3823529415000003e-01  0.0000000000000000e+00  1.4999999999999999e-01
3.3823529414999998e-01  0.0000000000000000e+00  2.5000000000000000e-01
3.3823529414999992e-01  0.0000000000000000e+00  3.4999999999999992e-01
3.6764705885000004e-01  0.0000000000000000e+00  5.0000000000000003e-02
3.6764705885000004e-01  0.0000000000000000e+00  1.4999999999999999e-01
3.6764705885000004e-01  0.0000000000000000e+00  2.5000000000000000e-01
3.6764705884999999e-01  0.0000000000000000e+00  3.4999999999999992e-01
3.9705882354999994e-01  0.0000000000000000e+00  5.0000000000000003e-02
3.9705882355000005e-01  0.0000000000000000e+00  1.4999999999999999e-01
3.9705882355000000e-01  0.0000000000000000e+00  2.5000000000000000e-01
3.9705882355000000e-01  0.0000000000000000e+00  3.4999999999999992e-01
4.2647058824999995e-01  0.0000000000000000e+00  5.0000000000000003e-02
4.2647058824999989e-01  0.0000000000000000e+00  1.4999999999999999e-01
4.2647058824999995e-01  0.0000000000000000e+00  2.4999999999999997e-01
4.2647058825000006e-01  0.0000000000000000e+00  3.5000000000000003e-01
4.5588235295000001e-01  0.0000000000000000e+00  5.0000000000000003e-02
4.5588235295000001e-01  0.0000000000000000e+00  1.4999999999999999e-01
4.5588235295000001e-01  0.0000000000000000e+00  2.5000000000000000e-01
4.5588235294999990e-01  0.0000000000000000e+00  3.4999999999999992e-01
4.8529411764999991e-01  0.0000000000000000e+00  5.0000000000000003e-02
4.8529411764999991e-01  0.0000000000000000e+00  1.4999999999999999e-01
4.8529411765000002e-01  0.0000000000000000e+00  2.5000000000000000e-01
4.8529411765000002e-01  0.0000000000000000e+00  3.4999999999999992e-01
5.1470588234999992e-01  0.0000000000000000e+00  5.0000000000000003e-02
5.1470588234999992e-01  0.0000000000000000e+00  1.4999999999999999e-01
5.1470588234999992e-01  0.0000000000000000e+00  2.4999999999999997e-01
5.1470588234999992e-01  0.0000000000000000e+00  3.5000000000000003e-01
5.4411764704999999e-01  0.0000000000000000e+00  5.0000000000000003e-02
5.4411764704999999e-01  0.0000000000000000e+00  1.4999999999999999e-01
5.4411764704999988e-01  0.0000000000000000e+00  2.4999999999999997e-01
5.4411764704999988e-01  0.0000000000000000e+00  3.5000000000000003e-01
5.7352941175000016e-01  0.0000000000000000e+00  5.0000000000000010e-02
5.7352941174999994e-01  0.0000000000000000e+00  1.4999999999999999e-01
5.7352941174999994e-01  0.0000000000000000e+00  2.5000000000000000e-01
5.7352941174999994e-01  0.0000000000000000e+00  3.5000000000000003e-01
6.0294117645000000e-01  0.0000000000000000e+00  5.0000000000000003e-02
6.0294117644999989e-01  0.0000000000000000e+00  1.4999999999999999e-01
6.0294117644999989e-01  0.0000000000000000e+00  2.4999999999999997e-01
6.0294117645000000e-01  0.0000000000000000e+00  3.5000000000000003e-01
6.3235294114999996e-01  0.0000000000000000e+00  5.0000000000000010e-02
6.3235294114999996e-01  0.0000000000000000e+00  1.4999999999999999e-01
6.3235294114999996e-01  0.0000000000000000e+00  2.5000000000000000e-01
6.3235294115000007e-01  0.0000000000000000e+00  3.5000000000000003e-01
6.6176470585000002e-01  0.0000000000000000e+00  5.0000000000000010e-02
6.6176470584999991e-01  0.0000000000000000e+00  1.4999999999999999e-01
6.6176470585000002e-01  0.0000000000000000e+00  2.5000000000000000e-01
6.6176470585000002e-01  0.0000000000000000e+00  3.5000000000000003e-01
6.9117647054999998e-01  0.0000000000000000e+00  5.0000000000000003e-02
6.9117647054999998e-01  0.0000000000000000e+00  1.5000000000000005e-01
6.9117647054999987e-01  0.0000000000000000e+00  2.4999999999999997e-01
6.9117647054999987e-01  0.0000000000000000e+00  3.4999999999999992e-01
7.2058823525000004e-01  0.0000000000000000e+00  5.0000000000000010e-02
7.2058823524999993e-01  0.0000000000000000e+00  1.4999999999999999e-01
7.2058823524999982e-01  0.0000000000000000e+00  2.5000000000000000e-01
7.2058823525000004e-01  0.0000000000000000e+00  3.5000000000000003e-01
7.5000000000000000e-01  0.0000000000000000e+00  5.0000000000000003e-02
7.5000000000000000e-01  0.0000000000000000e+00  1.5000000000000002e-01
7.5000000000000000e-01  0.0000000000000000e+00  2.4999999999999997e-01
7.5000000000000000e-01  0.0000000000000000e+00  3.4999999999999998e-01
7.7941176475000018e-01  0.0000000000000000e+00  5.0000000000000010e-02
7.7941176475000007e-01  0.0000000000000000e+00  1.4999999999999999e-01
7.7941176475000007e-01  0.0000000000000000e+00  2.5000000000000000e-01
7.7941176475000018e-01  0.0000000000000000e+00  3.5000000000000003e-01
8.0882352945000002e-01  0.0000000000000000e+00  5.0000000000000003e-02
8.0882352944999980e-01  0.0000000000000000e+00  1.4999999999999999e-01
8.0882352944999991e-01  0.0000000000000000e+00  2.4999999999999997e-01
8.0882352944999991e-01  0.0000000000000000e+00  3.5000000000000003e-01
8.3823529414999987e-01  0.0000000000000000e+00  5.0000000000000003e-02
8.3823529414999987e-01  0.0000000000000000e+00  1.4999999999999999e-01
8.3823529414999987e-01  0.0000000000000000e+00  2.4999999999999997e-01
8.3823529415000009e-01  0.0000000000000000e+00  3.5000000000000003e-01
8.6764705885000004e-01  0.0000000000000000e+00  5.0000000000000010e-02
8.6764705884999982e-01  0.0000000000000000e+00  1.4999999999999999e-01
8.6764705884999993e-01  0.0000000000000000e+00  2.5000000000000000e-01
8.6764705884999993e-01  0.0000000000000000e+00  3.5000000000000003e-01
8.9705882354999988e-01  0.0000000000000000e+00  5.0000000000000003e-02
8.9705882355000011e-01  0.0000000000000000e+00  1.4999999999999999e-01
8.9705882354999988e-01  0.0000000000000000e+00  2.4999999999999997e-01
8.9705882355000000e-01  0.0000000000000000e+00  3.5000000000000003e-01
9.2647058825000006e-01  0.0000000000000000e+00  5.0000000000000003e-02
9.2647058824999973e-01  0.0000000000000000e+00  1.4999999999999999e-01
9.2647058824999984e-01  0.0000000000000000e+00  2.4999999999999997e-01
9.2647058824999995e-01  0.0000000000000000e+00  3.5000000000000003e-01
9.5588235294999990e-01  0.0000000000000000e+00  5.0000000000000003e-02
9.5588235295000012e-01  0.0000000000000000e+00  1.4999999999999999e-01
9.5588235295000012e-01  0.0000000000000000e+00  2.4999999999999997e-01
9.5588235294999979e-01  0.0000000000000000e+00  3.5000000000000003e-01
9.8529411765000030e-01  0.0000000000000000e+00  5.0000000000000010e-02
9.8529411764999986e-01  0.0000000000000000e+00  1.4999999999999999e-01
9.8529411764999997e-01  0.0000000000000000e+00  2.5000000000000000e-01
9.8529411765000008e-01  0.0000000000000000e+00  3.5000000000000003e-01

CELLS 0 0


CELL_TYPES 0


POINT_DATA 136

VECTORS VertexNormals float

0.0000000000000000e+00 0.0000000000000000e+00 0.0000000000000000e+00 
0.0000000000000000e+00 0.0000000000000000e+00 0.0000000000000000e+00 
0.0000000000000000e+00 0.0000000000000000e+00 0.0000000000000000e+00 
0.0000000000000000e+00 0.0000000000000000e+00 0.0000000000000000e+00 
0.0000000000000000e+00 0.0000000000000000e+00 0.0000000000000000e+00 
0.0000000000000000e+00 0.0000000000000000e+00 0.0000000000000000e+00 
0.0000000000000000e+00 0.0000000000000000e+00 0.0000000000000000e+00 
0.0000000000000000e+00 0.0000000000000000e+00 0.0000000000000000e+00 
0.0000000000000000e+00 0.0000000000000000e+00 0.0000000000000000e+00 
0.0000000000000000e+00 0.0000000000000000e+00 0.0000000000000000e+00 
0.0000000000000000e+00 0.0000000000000000e+00 0.0000000000000000e+00 
0.0000000000000000e+00 0.0000000000000000e+00 0.0000000000000000e+00 
0.0000000000000000e+00 0.0000000000000000e+00 0.0000000000000000e+00 
0.0000000000000000e+00 0.0000000000000000e+00 0.0000000000000000e+00 
0.0000000000000000e+00 0.0000000000000000e+00 0.0000000000000000e+00 
0.0000000000000000e+00 0.0000000000000000e+00 0.0000000000000000e+00 
0.0000000000000000e+00 0.0000000000000000e+00 0.0000000000000000e+00 
0.0000000000000000e+00 0.0000000000000000e+00 0.0000000000000000e+00 
0.0000000000000000e+00 0.0000000000000000e+00 0.0000000000000000e+00 
0.0000000000000000e+00 0.0000000000000000e+00 0.0000000000000000e+00 
0.0000000000000000e+00 0.0000000000000000e+00 0.0000000000000000e+00 
0.0000000000000000e+00 0.0000000000000000e+00 0.0000000000000000e+00 
0.0000000000000000e+00 0.0000000000000000e+00 0.0000000000000000e+00 
0.0000000000000000e+00 0.0000000000000000e+00 0.0000000000000000e+00 
0.0000000000000000e+00 0.0000000000000000e+00 0.0000000000000000e+00 
0.0000000000000000e+00 0.0000000000000000e+00 0.0000000000000000e+00 
0.0000000000000000e+00 0.0000000000000000e+00 0.0000000000000000e+00 
0.0000000000000000e+00 0.0000000000000000e+00 0.0000000000000000e+00 
0.0000000000000000e+00 0.0000000000000000e+00 0.0000000000000000e+00 
0.0000000000000000e+00 0.0000000000000000e+00 0.0000000000000000e+00 
0.0000000000000000e+00 0.0000000000000000e+00 0.0000000000000000e+00 
0.0000000000000000e+00 0.0000000000000000e+00 0.0000000000000000e+00 
0.0000000000000000e+00 0.0000000000000000e+00 0.0000000000000000e+00 
0.0000000000000000e+00 0.0000000000000000e+00 0.0000000000000000e+00 
0.0000000000000000e+00 0.0000000000000000e+00 0.0000000000000000e+00 
0.0000000000000000e+00 0.0000000000000000e+00 0.0000000000000000e+00 
0.0000000000000000e+00 0.0000000000000000e+00 0.0000000000000000e+00 
0.0000000000000000e+00 0.0000000000000000e+00 0.0000000000000000e+00 
0.0000000000000000e+00 0.0000000000000000e+00 0.0000000000000000e+00 
0.0000000000000000e+00 0.0000000000000000e+00 0.0000000000000000e+00 
0.0000000000000000e+00 0.0000000000000000e+00 0.0000000000000000e+00 
0.0000000000000000e+00 0.0000000000000000e+00 0.0000000000000000e+00 
0.0000000000000000e+00 0.0000000000000000e+00 0.0000000000000000e+00 
0.0000000000000000e+00 0.0000000000000000e+00 0.0000000000000000e+00 
0.0000000000000000e+00 0.0000000000000000e+00 0.0000000000000000e+00 
0.0000000000000000e+00 0.0000000000000000e+00 0.0000000000000000e+00 
0.0000000000000000e+00 0.0000000000000000e+00 0.0000000000000000e+00 
0.0000000000000000e+00 0.0000000000000000e+00 0.0000000000000000e+00 
0.0000000000000000e+00 0.0000000000000000e+00 0.0000000000000000e+00 
0.0000000000000000e+00 0.0000000000000000e+00 0.0000000000000000e+00 
0.0000000000000000e+00 0.0000000000000000e+00 0.0000000000000000e+00 
0.0000000000000000e+00 0.0000000000000000e+00 0.0000000000000000e+00 
0.0000000000000000e+00 0.0000000000000000e+00 0.0000000000000000e+00 
0.0000000000000000e+00 0.0000000000000000e+00 0.0000000000000000e+00 
0.0000000000000000e+00 0.0000000000000000e+00 0.0000000000000000e+00 
0.0000000000000000e+00 0.0000000000000000e+00 0.0000000000000000e+00 
0.0000000000000000e+00 0.0000000000000000e+00 0.0000000000000000e+00 
0.0000000000000000e+00 0.0000000000000000e+00 0.0000000000000000e+00 
0.0000000000000000e+00 0.0000000000000000e+00 0.0000000000000000e+00 
0.0000000000000000e+00 0.0000000000000000e+00 0.0000000000000000e+00 
0.0000000000000000e+00 0.0000000000000000e+00 0.0000000000000000e+00 
0.0000000000000000e+00 0.0000000000000000e+00 0.0000000000000000e+00 
0.0000000000000000e+00 0.0000000000000000e+00 0.0000000000000000e+00 
0.0000000000000000e+00 0.0000000000000000e+00 0.0000000000000000e+00 
0.0000000000000000e+00 0.0000000000000000e+00 0.0000000000000000e+00 
0.0000000000000000e+00 0.0000000000000000e+00 0.0000000000000000e+00 
0.0000000000000000e+00 0.0000000000000000e+00 0.0000000000000000e+00 
0.0000000000000000e+00 0.0000000000000000e+00 0.0000000000000000e+00 
0.0000000000000000e+00 0.0000000000000000e+00 0.0000000000000000e+00 
0.0000000000000000e+00 0.0000000000000000e+00 0.0000000000000000e+00 
0.0000000000000000e+00 0.0000000000000000e+00 0.0000000000000000e+00 
0.0000000000000000e+00 0.0000000000000000e+00 0.0000000000000000e+00 
0.0000000000000000e+00 0.0000000000000000e+00 0.0000000000000000e+00 
0.0000000000000000e+00 0.0000000000000000e+00 0.0000000000000000e+00 
0.0000000000000000e+00 0.0000000000000000e+00 0.0000000000000000e+00 
0.0000000000000000e+00 0.0000000000000000e+00 0.0000000000000000e+00 
0.0000000000000000e+00 0.0000000000000000e+00 0.0000000000000000e+00 
0.0000000000000000e+00 0.0000000000000000e+00 0.0000000000000000e+00 
0.0000000000000000e+00 0.0000000000000000e+00 0.0000000000000000e+00 
0.0000000000000000e+00 0.0000000000000000e+00 0.0000000000000000e+00 
0.0000000000000000e+00 0.0000000000000000e+00 0.0000000000000000e+00 
0.0000000000000000e+00 0.0000000000000000e+00 0.0000000000000000e+00 
0.0000000000000000e+00 0.0000000000000000e+00 0.0000000000000000e+00 
0.0000000000000000e+00 0.0000000000000000e+00 0.0000000000000000e+00 
0.0000000000000000e+00 0.0000000000000000e+00 0.0000000000000000e+00 
0.0000000000000000e+00 0.0000000000000000e+00 0.0000000000000000e+00 
0.0000000000000000e+00 0.0000000000000000e+00 0.0000000000000000e+00 
0.0000000000000000e+00 0.0000000000000000e+00 0.0000000000000000e+00 
0.0000000000000000e+00 0.0000000000000000e+00 0.0000000000000000e+00 
0.0000000000000000e+00 0.0000000000000000e+00 0.0000000000000000e+00 
0.0000000000000000e+00 0.0000000000000000e+00 0.0000000000000000e+00 
0.0000000000000000e+00 0.0000000000000000e+00 0.0000000000000000e+00 
0.0000000000000000e+00 0.0000000000000000e+00 0.0000000000000000e+00 
0.0000000000000000e+00 0.0000000000000000e+00 0.0000000000000000e+00 
0.0000000000000000e+00 0.0000000000000000e+00 0.0000000000000000e+00 
0.0000000000000000e+00 0.0000000000000000e+00 0.0000000000000000e+00 
0.0000000000000000e+00 0.0000000000000000e+00 0.0000000000000000e+00 
0.0000000000000000e+00 0.0000000000000000e+00 0.0000000000000000e+00 
0.0000000000000000e+00 0.0000000000000000e+00 0.0000000000000000e+00 
0.0000000000000000e+00 0.0000000000000000e+00 0.0000000000000000e+00 
0.0000000000000000e+00 0.0000000000000000e+00 0.0000000000000000e+00 
0.0000000000000000e+00 0.0000000000000000e+00 0.0000000000000000e+00 
0.0000000000000000e+00 0.0000000000000000e+00 0.0000000000000000e+00 
0.0000000000000000e+00 0.0000000000000000e+00 0.0000000000000000e+00 
0.0000000000000000e+00 0.0000000000000000e+00 0.0000000000000000e+00 
0.0000000000000000e+00 0.0000000000000000e+00 0.0000000000000000e+00 
0.0000000000000000e+00 0.0000000000000000e+00 0.0000000000000000e+00 
0.0000000000000000e+00 0.0000000000000000e+00 0.0000000000000000e+00 
0.0000000000000000e+00 0.0000000000000000e+00 0.0000000000000000e+00 
0.0000000000000000e+00 0.0000000000000000e+00 0.0000000000000000e+00 
0.0000000000000000e+00 0.0000000000000000e+00 0.0000000000000000e+00 
0.0000000000000000e+00 0.0000000000000000e+00 0.0000000000000000e+00 
0.0000000000000000e+00 0.0000000000000000e+00 0.0000000000000000e+00 
0.0000000000000000e+00 0.0000000000000000e+00 0.0000000000000000e+00 
0.0000000000000000e+00 0.0000000000000000e+00 0.0000000000000000e+00 
0.0000000000000000e+00 0.0000000000000000e+00 0.0000000000000000e+00 
0.0000000000000000e+00 0.0000000000000000e+00 0.0000000000000000e+00 
0.0000000000000000e+00 0.0000000000000000e+00 0.0000000000000000e+00 
0.0000000000000000e+00 0.0000000000000000e+00 0.0000000000000000e+00 
0.0000000000000000e+00 0.0000000000000000e+00 0.0000000000000000e+00 
0.0000000000000000e+00 0.0000000000000000e+00 0.0000000000000000e+00 
0.0000000000000000e+00 0.0000000000000000e+00 0.0000000000000000e+00 
0.0000000000000000e+00 0.0000000000000000e+00 0.0000000000000000e+00 
0.0000000000000000e+00 0.0000000000000000e+00 0.0000000000000000e+00 
0.0000000000000000e+00 0.0000000000000000e+00 0.0000000000000000e+00 
0.0000000000000000e+00 0.0000000000000000e+00 0.0000000000000000e+00 
0.0000000000000000e+00 0.0000000000000000e+00 0.0000000000000000e+00 
0.0000000000000000e+00 0.0000000000000000e+00 0.0000000000000000e+00 
0.0000000000000000e+00 0.0000000000000000e+00 0.0000000000000000e+00 
0.0000000000000000e+00 0.0000000000000000e+00 0.0000000000000000e+00 
0.0000000000000000e+00 0.0000000000000000e+00 0.0000000000000000e+00 
0.0000000000000000e+00 0.0000000000000000e+00 0.0000000000000000e+00 
0.0000000000000000e+00 0.0000000000000000e+00 0.0000000000000000e+00 
0.0000000000000000e+00 0.0000000000000000e+00 0.0000000000000000e+00 
0.0000000000000000e+00 0.0000000000000000e+00 0.0000000000000000e+00 
0.0000000000000000e+00 0.0000000000000000e+00 0.0000000000000000e+00 

SCALARS Temperature float
LOOKUP_TABLE default
3.0134358008879627e+02
3.0134357635718061e+02
3.0134357635718061e+02
3.0134358144520792e+02
3.0147473642368169e+02
3.0147473285247804e+02
3.0147473285247804e+02
3.0147473628978872e+02
3.0152261338345591e+02
3.0152261059402639e+02
3.0152261059402639e+02
3.0152261365825734e+02
3.0154557058850833e+02
3.0154556720847341e+02
3.0154556720847341e+02
3.0154557084146364e+02
3.0155588631923547e+02
3.0155588318649166e+02
3.0155588318649166e+02
3.0155588666803982e+02
3.0156108219571763e+02
3.0156107914069463e+02
3.0156107914069463e+02
3.0156108273988917e+02
3.0156364456130797e+02
3.0156364157611847e+02
3.0156364157611847e+02
3.0156364540654067e+02
3.0156501761454729e+02
3.0156501454279316e+02
3.0156501454279316e+02
3.0156501857834030e+02
3.0156583905031579e+02
3.0156583592063976e+02
3.0156583592063976e+02
3.0156584005878500e+02
3.0156635291045205e+02
3.0156635010866376e+02
3.0156635010866376e+02
3.0156635382617418e+02
3.0156664609672595e+02
3.0156664335663635e+02
3.0156664335663635e+02
3.0156664689962969e+02
3.0156683453362797e+02
3.0156683189177556e+02
3.0156683189177556e+02
3.0156683522339102e+02
3.0156694834631435e+02
3.0156694562754785e+02
3.0156694562754785e+02
3.0156694895769834e+02
3.0156701054483489e+02
3.0156700779491104e+02
3.0156700779491104e+02
3.0156701108469372e+02
3.0156703998833234e+02
3.0156703730704186e+02
3.0156703730704186e+02
3.0156704057083175e+02
3.0156705072375536e+02
3.0156704786721656e+02
3.0156704786721656e+02
3.0156705119589560e+02
3.0156704009068557e+02
3.0156703729126684e+02
3.0156703729126684e+02
3.0156704063477747e+02
3.0156701971498057e+02
3.0156701703650407e+02
3.0156701703650407e+02
3.0156702027502206e+02
3.0156697900606417e+02
3.0156697624295958e+02
3.0156697624295958e+02
3.0156697963076272e+02
3.0156691730795291e+02
3.0156691468023769e+02
3.0156691468023769e+02
3.0156691785210688e+02
3.0156684127904185e+02
3.0156683876958687e+02
3.0156683876958687e+02
3.0156684181877540e+02
3.0156671456076771e+02
3.0156671194943146e+02
3.0156671194943146e+02
3.0156671508055052e+02
3.0156654784678580e+02
3.0156654460480388e+02
3.0156654460480388e+02
3.0156654820801361e+02
3.0156630430725568e+02
3.0156630056435228e+02
3.0156630056435228e+02
3.0156630493090574e+02
3.0156594358547977e+02
3.0156593953672507e+02
3.0156593953672507e+02
3.0156594427813201e+02
3.0156539324870909e+02
3.0156538965698184e+02
3.0156538965698184e+02
3.0156539401626480e+02
3.0156452744633691e+02
3.0156452444919199e+02
3.0156452444919199e+02
3.0156452823741029e+02
3.0156310485488387e+02
3.0156310096325484e+02
3.0156310096325484e+02
3.0156310555233301e+02
3.0156054517006959e+02
3.0156054335141408e+02
3.0156054335141408e+02
3.0156054619883116e+02
3.0155658918508681e+02
3.0155658708438415e+02
3.0155658708438415e+02
3.0155658975712402e+02
3.0154653218774627e+02
3.0154653008016470e+02
3.0154653008016470e+02
3.0154653301331439e+02
3.0152898892210612e+02
3.0152898782390065e+02
3.0152898782390065e+02
3.0152898966274233e+02
3.0147115728688374e+02
3.0147115623049865e+02
3.0147115623049865e+02
3.0147115769117482e+02
3.0134974963203365e+02
3.0134974850575821e+02
3.0134974850575821e+02
3.0134975014067999e+02

SCALARS Heat-Flux float
LOOKUP_TABLE default
3.8480717873251697e+03
3.8480752458533971e+03
3.8480746261186150e+03
3.8480765635082207e+03
3.3550713659649764e+03
3.3550632832499105e+03
3.3550638191671169e+03
3.3550697670092632e+03
3.3469481387161077e+03
3.3469416959196678e+03
3.3469430902689064e+03
3.3469483593587938e+03
3.3614631681128240e+03
3.3614542817158508e+03
3.3614553376464755e+03
3.3614639947409160e+03
3.3788066284185334e+03
3.3787971652745910e+03
3.3787985689988991e+03
3.3788072969226041e+03
3.3894422016121098e+03
3.3894329313778144e+03
3.3894347072418896e+03
3.3894437530332643e+03
3.3966408357024193e+03
3.3966311604279326e+03
3.3966330938070323e+03
3.3966424560436280e+03
3.4011227880415381e+03
3.4011135145330618e+03
3.4011155432810483e+03
3.4011247659866058e+03
3.4038331109448327e+03
3.4038245862495378e+03
3.4038266503732302e+03
3.4038350158116373e+03
3.4055049958915333e+03
3.4054964550552540e+03
3.4054984670852718e+03
3.4055068501300411e+03
3.4066974921966903e+03
3.4066894588744617e+03
3.4066913710528752e+03
3.4066990901643303e+03
3.4074458973926085e+03
3.4074377847318829e+03
3.4074395925767021e+03
3.4074472309919656e+03
3.4079478945590381e+03
3.4079399813912460e+03
3.4079417004402794e+03
3.4079490352363800e+03
3.4082921247791091e+03
3.4082845025215647e+03
3.4082861519418657e+03
3.4082932941761101e+03
3.4085188013239531e+03
3.4085108886523813e+03
3.4085124894554601e+03
3.4085195244879278e+03
3.4086451178329298e+03
3.4086377682091561e+03
3.4086393243109351e+03
3.4086464510503001e+03
3.4087212945225474e+03
3.4087136387366618e+03
3.4087151708496094e+03
3.4087222226364247e+03
3.4087203502938792e+03
3.4087124085155665e+03
3.4087139190400194e+03
3.4087213097132903e+03
3.4086804479891725e+03
3.4086729164686403e+03
3.4086744024913060e+03
3.4086810899614647e+03
3.4085846169044089e+03
3.4085771807956917e+03
3.4085786233568797e+03
3.4085856664518351e+03
3.4083666737715248e+03
3.4083588333480293e+03
3.4083602252707351e+03
3.4083674345725740e+03
3.4080971199357000e+03
3.4080884077731753e+03
3.4080897425556032e+03
3.4080975035059955e+03
3.4076334750687238e+03
3.4076245690506767e+03
3.4076258652872630e+03
3.4076345797489921e+03
3.4069525931699900e+03
3.4069424126333615e+03
3.4069437744859906e+03
3.4069527420411760e+03
3.4059244535019379e+03
3.4059147383792151e+03
3.4059162560508412e+03
3.4059258307446726e+03
3.4043535334822072e+03
3.4043448188145694e+03
3.4043464871894685e+03
3.4043552198701946e+03
3.4019032928816159e+03
3.4018925471798866e+03
3.4018941827496747e+03
3.4019034315337185e+03
3.3980134663230265e+03
3.3980036403816475e+03
3.3980052944752979e+03
3.3980160379200242e+03
3.3923365331727837e+03
3.3923297064429789e+03
3.3923318468077923e+03
3.3923377612292811e+03
3.3791965071388395e+03
3.3791870064087552e+03
3.3791882712364886e+03
3.3791974144143751e+03
3.3665783322510833e+03
3.3665727546009293e+03
3.3665749590807545e+03
3.3665797765876041e+03
3.3273965691347257e+03
3.3273908018098155e+03
3.3273917910148148e+03
3.3273983540784670e+03
3.3888440017639368e+03
3.3888397211580013e+03
3.3888414735927663e+03
3.3888441441413306e+03
3.8197871926466178e+03
3.8197841271721691e+03
3.8197850063639635e+03
3.8197889914605175e+03

