# vtk DataFile Version 2.0

ASCII

DATASET UNSTRUCTURED_GRID

POINTS 136 float 

1.4705882355000000e-02  0.0000000000000000e+00  4.9999999999999996e-02
1.4705882355000000e-02  0.0000000000000000e+00  1.4999999999999999e-01
1.4705882355000000e-02  0.0000000000000000e+00  2.4999999999999997e-01
1.4705882355000000e-02  0.0000000000000000e+00  3.4999999999999998e-01
4.4117647059999994e-02  0.0000000000000000e+00  5.0000000000000003e-02
4.4117647059999994e-02  0.0000000000000000e+00  1.5000000000000002e-01
4.4117647059999994e-02  0.0000000000000000e+00  2.5000000000000000e-01
4.4117647060000001e-02  0.0000000000000000e+00  3.4999999999999998e-01
7.3529411764999983e-02  0.0000000000000000e+00  5.0000000000000010e-02
7.3529411764999983e-02  0.0000000000000000e+00  1.5000000000000002e-01
7.3529411764999997e-02  0.0000000000000000e+00  2.5000000000000000e-01
7.3529411764999997e-02  0.0000000000000000e+00  3.4999999999999998e-01
1.0294117645999996e-01  0.0000000000000000e+00  4.9999999999999989e-02
1.0294117646000002e-01  0.0000000000000000e+00  1.5000000000000002e-01
1.0294117645999999e-01  0.0000000000000000e+00  2.5000000000000000e-01
1.0294117645999998e-01  0.0000000000000000e+00  3.4999999999999998e-01
1.3235294114999999e-01  0.0000000000000000e+00  4.9999999999999996e-02
1.3235294114999999e-01  0.0000000000000000e+00  1.5000000000000002e-01
1.3235294114999999e-01  0.0000000000000000e+00  2.4999999999999997e-01
1.3235294114999999e-01  0.0000000000000000e+00  3.4999999999999992e-01
1.6176470585000000e-01  0.0000000000000000e+00  5.0000000000000003e-02
1.6176470584999997e-01  0.0000000000000000e+00  1.4999999999999999e-01
1.6176470585000000e-01  0.0000000000000000e+00  2.4999999999999997e-01
1.6176470585000000e-01  0.0000000000000000e+00  3.5000000000000003e-01
1.9117647054999998e-01  0.0000000000000000e+00  5.0000000000000003e-02
1.9117647054999998e-01  0.0000000000000000e+00  1.4999999999999999e-01
1.9117647055000000e-01  0.0000000000000000e+00  2.4999999999999997e-01
1.9117647054999998e-01  0.0000000000000000e+00  3.5000000000000003e-01
2.2058823524999999e-01  0.0000000000000000e+00  5.0000000000000003e-02
2.2058823524999999e-01  0.0000000000000000e+00  1.5000000000000002e-01
2.2058823524999999e-01  0.0000000000000000e+00  2.5000000000000000e-01
2.2058823524999999e-01  0.0000000000000000e+00  3.5000000000000003e-01
2.5000000000000000e-01  0.0000000000000000e+00  4.9999999999999996e-02
2.5000000000000000e-01  0.0000000000000000e+00  1.5000000000000005e-01
2.5000000000000000e-01  0.0000000000000000e+00  2.5000000000000000e-01
2.5000000000000000e-01  0.0000000000000000e+00  3.4999999999999998e-01
2.7941176474999996e-01  0.0000000000000000e+00  5.0000000000000003e-02
2.7941176474999996e-01  0.0000000000000000e+00  1.4999999999999999e-01
2.7941176475000001e-01  0.0000000000000000e+00  2.5000000000000000e-01
2.7941176474999990e-01  0.0000000000000000e+00  3.4999999999999992e-01
3.0882352944999997e-01  0.0000000000000000e+00  5.0000000000000003e-02
3.0882352945000002e-01  0.0000000000000000e+00  1.5000000000000002e-01
3.0882352945000002e-01  0.0000000000000000e+00  2.4999999999999997e-01
3.0882352945000002e-01  0.0000000000000000e+00  3.4999999999999992e-01
3.3823529414999998e-01  0.0000000000000000e+00  5.0000000000000003e-02
3.3823529415000003e-01  0.0000000000000000e+00  1.4999999999999999e-01
3.3823529414999998e-01  0.0000000000000000e+00  2.5000000000000000e-01
3.3823529414999992e-01  0.0000000000000000e+00  3.4999999999999992e-01
3.6764705885000004e-01  0.0000000000000000e+00  5.0000000000000003e-02
3.6764705885000004e-01  0.0000000000000000e+00  1.4999999999999999e-01
3.6764705885000004e-01  0.0000000000000000e+00  2.5000000000000000e-01
3.6764705884999999e-01  0.0000000000000000e+00  3.4999999999999992e-01
3.9705882354999994e-01  0.0000000000000000e+00  5.0000000000000003e-02
3.9705882355000005e-01  0.0000000000000000e+00  1.4999999999999999e-01
3.9705882355000000e-01  0.0000000000000000e+00  2.5000000000000000e-01
3.9705882355000000e-01  0.0000000000000000e+00  3.4999999999999992e-01
4.2647058824999995e-01  0.0000000000000000e+00  5.0000000000000003e-02
4.2647058824999989e-01  0.0000000000000000e+00  1.4999999999999999e-01
4.2647058824999995e-01  0.0000000000000000e+00  2.4999999999999997e-01
4.2647058825000006e-01  0.0000000000000000e+00  3.5000000000000003e-01
4.5588235295000001e-01  0.0000000000000000e+00  5.0000000000000003e-02
4.5588235295000001e-01  0.0000000000000000e+00  1.4999999999999999e-01
4.5588235295000001e-01  0.0000000000000000e+00  2.5000000000000000e-01
4.5588235294999990e-01  0.0000000000000000e+00  3.4999999999999992e-01
4.8529411764999991e-01  0.0000000000000000e+00  5.0000000000000003e-02
4.8529411764999991e-01  0.0000000000000000e+00  1.4999999999999999e-01
4.8529411765000002e-01  0.0000000000000000e+00  2.5000000000000000e-01
4.8529411765000002e-01  0.0000000000000000e+00  3.4999999999999992e-01
5.1470588234999992e-01  0.0000000000000000e+00  5.0000000000000003e-02
5.1470588234999992e-01  0.0000000000000000e+00  1.4999999999999999e-01
5.1470588234999992e-01  0.0000000000000000e+00  2.4999999999999997e-01
5.1470588234999992e-01  0.0000000000000000e+00  3.5000000000000003e-01
5.4411764704999999e-01  0.0000000000000000e+00  5.0000000000000003e-02
5.4411764704999999e-01  0.0000000000000000e+00  1.4999999999999999e-01
5.4411764704999988e-01  0.0000000000000000e+00  2.4999999999999997e-01
5.4411764704999988e-01  0.0000000000000000e+00  3.5000000000000003e-01
5.7352941175000016e-01  0.0000000000000000e+00  5.0000000000000010e-02
5.7352941174999994e-01  0.0000000000000000e+00  1.4999999999999999e-01
5.7352941174999994e-01  0.0000000000000000e+00  2.5000000000000000e-01
5.7352941174999994e-01  0.0000000000000000e+00  3.5000000000000003e-01
6.0294117645000000e-01  0.0000000000000000e+00  5.0000000000000003e-02
6.0294117644999989e-01  0.0000000000000000e+00  1.4999999999999999e-01
6.0294117644999989e-01  0.0000000000000000e+00  2.4999999999999997e-01
6.0294117645000000e-01  0.0000000000000000e+00  3.5000000000000003e-01
6.3235294114999996e-01  0.0000000000000000e+00  5.0000000000000010e-02
6.3235294114999996e-01  0.0000000000000000e+00  1.4999999999999999e-01
6.3235294114999996e-01  0.0000000000000000e+00  2.5000000000000000e-01
6.3235294115000007e-01  0.0000000000000000e+00  3.5000000000000003e-01
6.6176470585000002e-01  0.0000000000000000e+00  5.0000000000000010e-02
6.6176470584999991e-01  0.0000000000000000e+00  1.4999999999999999e-01
6.6176470585000002e-01  0.0000000000000000e+00  2.5000000000000000e-01
6.6176470585000002e-01  0.0000000000000000e+00  3.5000000000000003e-01
6.9117647054999998e-01  0.0000000000000000e+00  5.0000000000000003e-02
6.9117647054999998e-01  0.0000000000000000e+00  1.5000000000000005e-01
6.9117647054999987e-01  0.0000000000000000e+00  2.4999999999999997e-01
6.9117647054999987e-01  0.0000000000000000e+00  3.4999999999999992e-01
7.2058823525000004e-01  0.0000000000000000e+00  5.0000000000000010e-02
7.2058823524999993e-01  0.0000000000000000e+00  1.4999999999999999e-01
7.2058823524999982e-01  0.0000000000000000e+00  2.5000000000000000e-01
7.2058823525000004e-01  0.0000000000000000e+00  3.5000000000000003e-01
7.5000000000000000e-01  0.0000000000000000e+00  5.0000000000000003e-02
7.5000000000000000e-01  0.0000000000000000e+00  1.5000000000000002e-01
7.5000000000000000e-01  0.0000000000000000e+00  2.4999999999999997e-01
7.5000000000000000e-01  0.0000000000000000e+00  3.4999999999999998e-01
7.7941176475000018e-01  0.0000000000000000e+00  5.0000000000000010e-02
7.7941176475000007e-01  0.0000000000000000e+00  1.4999999999999999e-01
7.7941176475000007e-01  0.0000000000000000e+00  2.5000000000000000e-01
7.7941176475000018e-01  0.0000000000000000e+00  3.5000000000000003e-01
8.0882352945000002e-01  0.0000000000000000e+00  5.0000000000000003e-02
8.0882352944999980e-01  0.0000000000000000e+00  1.4999999999999999e-01
8.0882352944999991e-01  0.0000000000000000e+00  2.4999999999999997e-01
8.0882352944999991e-01  0.0000000000000000e+00  3.5000000000000003e-01
8.3823529414999987e-01  0.0000000000000000e+00  5.0000000000000003e-02
8.3823529414999987e-01  0.0000000000000000e+00  1.4999999999999999e-01
8.3823529414999987e-01  0.0000000000000000e+00  2.4999999999999997e-01
8.3823529415000009e-01  0.0000000000000000e+00  3.5000000000000003e-01
8.6764705885000004e-01  0.0000000000000000e+00  5.0000000000000010e-02
8.6764705884999982e-01  0.0000000000000000e+00  1.4999999999999999e-01
8.6764705884999993e-01  0.0000000000000000e+00  2.5000000000000000e-01
8.6764705884999993e-01  0.0000000000000000e+00  3.5000000000000003e-01
8.9705882354999988e-01  0.0000000000000000e+00  5.0000000000000003e-02
8.9705882355000011e-01  0.0000000000000000e+00  1.4999999999999999e-01
8.9705882354999988e-01  0.0000000000000000e+00  2.4999999999999997e-01
8.9705882355000000e-01  0.0000000000000000e+00  3.5000000000000003e-01
9.2647058825000006e-01  0.0000000000000000e+00  5.0000000000000003e-02
9.2647058824999973e-01  0.0000000000000000e+00  1.4999999999999999e-01
9.2647058824999984e-01  0.0000000000000000e+00  2.4999999999999997e-01
9.2647058824999995e-01  0.0000000000000000e+00  3.5000000000000003e-01
9.5588235294999990e-01  0.0000000000000000e+00  5.0000000000000003e-02
9.5588235295000012e-01  0.0000000000000000e+00  1.4999999999999999e-01
9.5588235295000012e-01  0.0000000000000000e+00  2.4999999999999997e-01
9.5588235294999979e-01  0.0000000000000000e+00  3.5000000000000003e-01
9.8529411765000030e-01  0.0000000000000000e+00  5.0000000000000010e-02
9.8529411764999986e-01  0.0000000000000000e+00  1.4999999999999999e-01
9.8529411764999997e-01  0.0000000000000000e+00  2.5000000000000000e-01
9.8529411765000008e-01  0.0000000000000000e+00  3.5000000000000003e-01

CELLS 0 0


CELL_TYPES 0


POINT_DATA 136

VECTORS VertexNormals float

0.0000000000000000e+00 0.0000000000000000e+00 0.0000000000000000e+00 
0.0000000000000000e+00 0.0000000000000000e+00 0.0000000000000000e+00 
0.0000000000000000e+00 0.0000000000000000e+00 0.0000000000000000e+00 
0.0000000000000000e+00 0.0000000000000000e+00 0.0000000000000000e+00 
0.0000000000000000e+00 0.0000000000000000e+00 0.0000000000000000e+00 
0.0000000000000000e+00 0.0000000000000000e+00 0.0000000000000000e+00 
0.0000000000000000e+00 0.0000000000000000e+00 0.0000000000000000e+00 
0.0000000000000000e+00 0.0000000000000000e+00 0.0000000000000000e+00 
0.0000000000000000e+00 0.0000000000000000e+00 0.0000000000000000e+00 
0.0000000000000000e+00 0.0000000000000000e+00 0.0000000000000000e+00 
0.0000000000000000e+00 0.0000000000000000e+00 0.0000000000000000e+00 
0.0000000000000000e+00 0.0000000000000000e+00 0.0000000000000000e+00 
0.0000000000000000e+00 0.0000000000000000e+00 0.0000000000000000e+00 
0.0000000000000000e+00 0.0000000000000000e+00 0.0000000000000000e+00 
0.0000000000000000e+00 0.0000000000000000e+00 0.0000000000000000e+00 
0.0000000000000000e+00 0.0000000000000000e+00 0.0000000000000000e+00 
0.0000000000000000e+00 0.0000000000000000e+00 0.0000000000000000e+00 
0.0000000000000000e+00 0.0000000000000000e+00 0.0000000000000000e+00 
0.0000000000000000e+00 0.0000000000000000e+00 0.0000000000000000e+00 
0.0000000000000000e+00 0.0000000000000000e+00 0.0000000000000000e+00 
0.0000000000000000e+00 0.0000000000000000e+00 0.0000000000000000e+00 
0.0000000000000000e+00 0.0000000000000000e+00 0.0000000000000000e+00 
0.0000000000000000e+00 0.0000000000000000e+00 0.0000000000000000e+00 
0.0000000000000000e+00 0.0000000000000000e+00 0.0000000000000000e+00 
0.0000000000000000e+00 0.0000000000000000e+00 0.0000000000000000e+00 
0.0000000000000000e+00 0.0000000000000000e+00 0.0000000000000000e+00 
0.0000000000000000e+00 0.0000000000000000e+00 0.0000000000000000e+00 
0.0000000000000000e+00 0.0000000000000000e+00 0.0000000000000000e+00 
0.0000000000000000e+00 0.0000000000000000e+00 0.0000000000000000e+00 
0.0000000000000000e+00 0.0000000000000000e+00 0.0000000000000000e+00 
0.0000000000000000e+00 0.0000000000000000e+00 0.0000000000000000e+00 
0.0000000000000000e+00 0.0000000000000000e+00 0.0000000000000000e+00 
0.0000000000000000e+00 0.0000000000000000e+00 0.0000000000000000e+00 
0.0000000000000000e+00 0.0000000000000000e+00 0.0000000000000000e+00 
0.0000000000000000e+00 0.0000000000000000e+00 0.0000000000000000e+00 
0.0000000000000000e+00 0.0000000000000000e+00 0.0000000000000000e+00 
0.0000000000000000e+00 0.0000000000000000e+00 0.0000000000000000e+00 
0.0000000000000000e+00 0.0000000000000000e+00 0.0000000000000000e+00 
0.0000000000000000e+00 0.0000000000000000e+00 0.0000000000000000e+00 
0.0000000000000000e+00 0.0000000000000000e+00 0.0000000000000000e+00 
0.0000000000000000e+00 0.0000000000000000e+00 0.0000000000000000e+00 
0.0000000000000000e+00 0.0000000000000000e+00 0.0000000000000000e+00 
0.0000000000000000e+00 0.0000000000000000e+00 0.0000000000000000e+00 
0.0000000000000000e+00 0.0000000000000000e+00 0.0000000000000000e+00 
0.0000000000000000e+00 0.0000000000000000e+00 0.0000000000000000e+00 
0.0000000000000000e+00 0.0000000000000000e+00 0.0000000000000000e+00 
0.0000000000000000e+00 0.0000000000000000e+00 0.0000000000000000e+00 
0.0000000000000000e+00 0.0000000000000000e+00 0.0000000000000000e+00 
0.0000000000000000e+00 0.0000000000000000e+00 0.0000000000000000e+00 
0.0000000000000000e+00 0.0000000000000000e+00 0.0000000000000000e+00 
0.0000000000000000e+00 0.0000000000000000e+00 0.0000000000000000e+00 
0.0000000000000000e+00 0.0000000000000000e+00 0.0000000000000000e+00 
0.0000000000000000e+00 0.0000000000000000e+00 0.0000000000000000e+00 
0.0000000000000000e+00 0.0000000000000000e+00 0.0000000000000000e+00 
0.0000000000000000e+00 0.0000000000000000e+00 0.0000000000000000e+00 
0.0000000000000000e+00 0.0000000000000000e+00 0.0000000000000000e+00 
0.0000000000000000e+00 0.0000000000000000e+00 0.0000000000000000e+00 
0.0000000000000000e+00 0.0000000000000000e+00 0.0000000000000000e+00 
0.0000000000000000e+00 0.0000000000000000e+00 0.0000000000000000e+00 
0.0000000000000000e+00 0.0000000000000000e+00 0.0000000000000000e+00 
0.0000000000000000e+00 0.0000000000000000e+00 0.0000000000000000e+00 
0.0000000000000000e+00 0.0000000000000000e+00 0.0000000000000000e+00 
0.0000000000000000e+00 0.0000000000000000e+00 0.0000000000000000e+00 
0.0000000000000000e+00 0.0000000000000000e+00 0.0000000000000000e+00 
0.0000000000000000e+00 0.0000000000000000e+00 0.0000000000000000e+00 
0.0000000000000000e+00 0.0000000000000000e+00 0.0000000000000000e+00 
0.0000000000000000e+00 0.0000000000000000e+00 0.0000000000000000e+00 
0.0000000000000000e+00 0.0000000000000000e+00 0.0000000000000000e+00 
0.0000000000000000e+00 0.0000000000000000e+00 0.0000000000000000e+00 
0.0000000000000000e+00 0.0000000000000000e+00 0.0000000000000000e+00 
0.0000000000000000e+00 0.0000000000000000e+00 0.0000000000000000e+00 
0.0000000000000000e+00 0.0000000000000000e+00 0.0000000000000000e+00 
0.0000000000000000e+00 0.0000000000000000e+00 0.0000000000000000e+00 
0.0000000000000000e+00 0.0000000000000000e+00 0.0000000000000000e+00 
0.0000000000000000e+00 0.0000000000000000e+00 0.0000000000000000e+00 
0.0000000000000000e+00 0.0000000000000000e+00 0.0000000000000000e+00 
0.0000000000000000e+00 0.0000000000000000e+00 0.0000000000000000e+00 
0.0000000000000000e+00 0.0000000000000000e+00 0.0000000000000000e+00 
0.0000000000000000e+00 0.0000000000000000e+00 0.0000000000000000e+00 
0.0000000000000000e+00 0.0000000000000000e+00 0.0000000000000000e+00 
0.0000000000000000e+00 0.0000000000000000e+00 0.0000000000000000e+00 
0.0000000000000000e+00 0.0000000000000000e+00 0.0000000000000000e+00 
0.0000000000000000e+00 0.0000000000000000e+00 0.0000000000000000e+00 
0.0000000000000000e+00 0.0000000000000000e+00 0.0000000000000000e+00 
0.0000000000000000e+00 0.0000000000000000e+00 0.0000000000000000e+00 
0.0000000000000000e+00 0.0000000000000000e+00 0.0000000000000000e+00 
0.0000000000000000e+00 0.0000000000000000e+00 0.0000000000000000e+00 
0.0000000000000000e+00 0.0000000000000000e+00 0.0000000000000000e+00 
0.0000000000000000e+00 0.0000000000000000e+00 0.0000000000000000e+00 
0.0000000000000000e+00 0.0000000000000000e+00 0.0000000000000000e+00 
0.0000000000000000e+00 0.0000000000000000e+00 0.0000000000000000e+00 
0.0000000000000000e+00 0.0000000000000000e+00 0.0000000000000000e+00 
0.0000000000000000e+00 0.0000000000000000e+00 0.0000000000000000e+00 
0.0000000000000000e+00 0.0000000000000000e+00 0.0000000000000000e+00 
0.0000000000000000e+00 0.0000000000000000e+00 0.0000000000000000e+00 
0.0000000000000000e+00 0.0000000000000000e+00 0.0000000000000000e+00 
0.0000000000000000e+00 0.0000000000000000e+00 0.0000000000000000e+00 
0.0000000000000000e+00 0.0000000000000000e+00 0.0000000000000000e+00 
0.0000000000000000e+00 0.0000000000000000e+00 0.0000000000000000e+00 
0.0000000000000000e+00 0.0000000000000000e+00 0.0000000000000000e+00 
0.0000000000000000e+00 0.0000000000000000e+00 0.0000000000000000e+00 
0.0000000000000000e+00 0.0000000000000000e+00 0.0000000000000000e+00 
0.0000000000000000e+00 0.0000000000000000e+00 0.0000000000000000e+00 
0.0000000000000000e+00 0.0000000000000000e+00 0.0000000000000000e+00 
0.0000000000000000e+00 0.0000000000000000e+00 0.0000000000000000e+00 
0.0000000000000000e+00 0.0000000000000000e+00 0.0000000000000000e+00 
0.0000000000000000e+00 0.0000000000000000e+00 0.0000000000000000e+00 
0.0000000000000000e+00 0.0000000000000000e+00 0.0000000000000000e+00 
0.0000000000000000e+00 0.0000000000000000e+00 0.0000000000000000e+00 
0.0000000000000000e+00 0.0000000000000000e+00 0.0000000000000000e+00 
0.0000000000000000e+00 0.0000000000000000e+00 0.0000000000000000e+00 
0.0000000000000000e+00 0.0000000000000000e+00 0.0000000000000000e+00 
0.0000000000000000e+00 0.0000000000000000e+00 0.0000000000000000e+00 
0.0000000000000000e+00 0.0000000000000000e+00 0.0000000000000000e+00 
0.0000000000000000e+00 0.0000000000000000e+00 0.0000000000000000e+00 
0.0000000000000000e+00 0.0000000000000000e+00 0.0000000000000000e+00 
0.0000000000000000e+00 0.0000000000000000e+00 0.0000000000000000e+00 
0.0000000000000000e+00 0.0000000000000000e+00 0.0000000000000000e+00 
0.0000000000000000e+00 0.0000000000000000e+00 0.0000000000000000e+00 
0.0000000000000000e+00 0.0000000000000000e+00 0.0000000000000000e+00 
0.0000000000000000e+00 0.0000000000000000e+00 0.0000000000000000e+00 
0.0000000000000000e+00 0.0000000000000000e+00 0.0000000000000000e+00 
0.0000000000000000e+00 0.0000000000000000e+00 0.0000000000000000e+00 
0.0000000000000000e+00 0.0000000000000000e+00 0.0000000000000000e+00 
0.0000000000000000e+00 0.0000000000000000e+00 0.0000000000000000e+00 
0.0000000000000000e+00 0.0000000000000000e+00 0.0000000000000000e+00 
0.0000000000000000e+00 0.0000000000000000e+00 0.0000000000000000e+00 
0.0000000000000000e+00 0.0000000000000000e+00 0.0000000000000000e+00 
0.0000000000000000e+00 0.0000000000000000e+00 0.0000000000000000e+00 
0.0000000000000000e+00 0.0000000000000000e+00 0.0000000000000000e+00 
0.0000000000000000e+00 0.0000000000000000e+00 0.0000000000000000e+00 
0.0000000000000000e+00 0.0000000000000000e+00 0.0000000000000000e+00 
0.0000000000000000e+00 0.0000000000000000e+00 0.0000000000000000e+00 
0.0000000000000000e+00 0.0000000000000000e+00 0.0000000000000000e+00 
0.0000000000000000e+00 0.0000000000000000e+00 0.0000000000000000e+00 
0.0000000000000000e+00 0.0000000000000000e+00 0.0000000000000000e+00 

SCALARS Temperature float
LOOKUP_TABLE default
3.0137282793622643e+02
3.0137282492248227e+02
3.0137282492248227e+02
3.0137282762272048e+02
3.0150818329912221e+02
3.0150818408825137e+02
3.0150818408825137e+02
3.0150818383636306e+02
3.0154508095716847e+02
3.0154508185561792e+02
3.0154508185561792e+02
3.0154508147691939e+02
3.0156027446795434e+02
3.0156027573985455e+02
3.0156027573985455e+02
3.0156027467184191e+02
3.0156651066472352e+02
3.0156651195097055e+02
3.0156651195097055e+02
3.0156651103047335e+02
3.0156949900849213e+02
3.0156950020345221e+02
3.0156950020345221e+02
3.0156949909295713e+02
3.0157092882938883e+02
3.0157093002116352e+02
3.0157093002116352e+02
3.0157092913494472e+02
3.0157168859868619e+02
3.0157168977233863e+02
3.0157168977233863e+02
3.0157168879440150e+02
3.0157213291391002e+02
3.0157213407149175e+02
3.0157213407149175e+02
3.0157213316164791e+02
3.0157240462298512e+02
3.0157240541708137e+02
3.0157240541708137e+02
3.0157240479814698e+02
3.0157255534868762e+02
3.0157255614028651e+02
3.0157255614028651e+02
3.0157255573498810e+02
3.0157264621849197e+02
3.0157264696340712e+02
3.0157264696340712e+02
3.0157264658491459e+02
3.0157269615297071e+02
3.0157269723024609e+02
3.0157269723024609e+02
3.0157269667065327e+02
3.0157271654720159e+02
3.0157271751735885e+02
3.0157271751735885e+02
3.0157271684579536e+02
3.0157272344723702e+02
3.0157272456910408e+02
3.0157272456910408e+02
3.0157272387863111e+02
3.0157272008319796e+02
3.0157272117458552e+02
3.0157272117458552e+02
3.0157272009434718e+02
3.0157270145924338e+02
3.0157270272589085e+02
3.0157270272589085e+02
3.0157270162950874e+02
3.0157268433603855e+02
3.0157268548770804e+02
3.0157268548770804e+02
3.0157268436776008e+02
3.0157265285965639e+02
3.0157265378857892e+02
3.0157265378857892e+02
3.0157265292060049e+02
3.0157261163155033e+02
3.0157261189886378e+02
3.0157261189886378e+02
3.0157261146041293e+02
3.0157256792523123e+02
3.0157256788351066e+02
3.0157256788351066e+02
3.0157256786877849e+02
3.0157249673142417e+02
3.0157249731433586e+02
3.0157249731433586e+02
3.0157249710475077e+02
3.0157240599089334e+02
3.0157240753098233e+02
3.0157240753098233e+02
3.0157240632519353e+02
3.0157227039888033e+02
3.0157227237595993e+02
3.0157227237595993e+02
3.0157227082999759e+02
3.0157206971765009e+02
3.0157207057045565e+02
3.0157207057045565e+02
3.0157206952638950e+02
3.0157176449014537e+02
3.0157176472003755e+02
3.0157176472003755e+02
3.0157176444611633e+02
3.0157127855129943e+02
3.0157128081237198e+02
3.0157128081237198e+02
3.0157127974338550e+02
3.0157046811643630e+02
3.0157046960489077e+02
3.0157046960489077e+02
3.0157046810842797e+02
3.0156900896936475e+02
3.0156900802275754e+02
3.0156900802275754e+02
3.0156900913165828e+02
3.0156667310892419e+02
3.0156667433543026e+02
3.0156667433543026e+02
3.0156667376110556e+02
3.0156053778439951e+02
3.0156053918397498e+02
3.0156053918397498e+02
3.0156053828566024e+02
3.0154891824313097e+02
3.0154891939482116e+02
3.0154891939482116e+02
3.0154891891216727e+02
3.0150517277253249e+02
3.0150517317494058e+02
3.0150517317494058e+02
3.0150517269610287e+02
3.0139063742015315e+02
3.0139063779376767e+02
3.0139063779376767e+02
3.0139063789662907e+02

SCALARS Heat-Flux float
LOOKUP_TABLE default
4.2326668960151428e+03
4.2326674164978613e+03
4.2326660567836379e+03
4.2326671417089528e+03
3.7719187432878234e+03
3.7719235548560391e+03
3.7719251100534166e+03
3.7719195249235781e+03
3.7949665916079548e+03
3.7949693868802569e+03
3.7949702001693377e+03
3.7949672617520264e+03
3.8169517848822588e+03
3.8169551150378538e+03
3.8169561004193383e+03
3.8169527741163620e+03
3.8319964309965144e+03
3.8319992161887058e+03
3.8320001766558553e+03
3.8319969405354632e+03
3.8399464739319228e+03
3.8399495555400790e+03
3.8399503942469892e+03
3.8399478157603871e+03
3.8447398665004584e+03
3.8447425474951160e+03
3.8447433960674980e+03
3.8447405039049045e+03
3.8475423292758924e+03
3.8475449524135902e+03
3.8475458486449497e+03
3.8475434145933832e+03
3.8491984526859587e+03
3.8492008378365417e+03
3.8492018868826563e+03
3.8491992951152497e+03
3.8501941225382325e+03
3.8501958779816050e+03
3.8501972002552066e+03
3.8501956146246812e+03
3.8508646090122056e+03
3.8508658195358294e+03
3.8508674538003106e+03
3.8508662161802940e+03
3.8512817226110201e+03
3.8512829013088776e+03
3.8512847513527959e+03
3.8512840641116782e+03
3.8515529781056102e+03
3.8515540608634183e+03
3.8515559730760297e+03
3.8515551423472070e+03
3.8517430129031709e+03
3.8517448746628361e+03
3.8517466889919888e+03
3.8517455593355407e+03
3.8518583608893096e+03
3.8518597562862851e+03
3.8518613787957283e+03
3.8518595342735343e+03
3.8519223580522521e+03
3.8519249628872794e+03
3.8519263188783962e+03
3.8519244767725477e+03
3.8519696991003002e+03
3.8519716802205940e+03
3.8519727710430743e+03
3.8519702578618308e+03
3.8519605175242759e+03
3.8519618488680862e+03
3.8519626475201221e+03
3.8519609634589856e+03
3.8519433809451584e+03
3.8519438086594164e+03
3.8519443179000518e+03
3.8519428696781688e+03
3.8518984139060194e+03
3.8518981807515956e+03
3.8518984684858879e+03
3.8518986037641289e+03
3.8517912997638632e+03
3.8517905962929945e+03
3.8517909267124196e+03
3.8517918004297826e+03
3.8516639883739108e+03
3.8516636859269056e+03
3.8516644662173348e+03
3.8516647563534198e+03
3.8514270159321313e+03
3.8514294610198704e+03
3.8514309379126635e+03
3.8514297114001238e+03
3.8510671465090127e+03
3.8510692867908801e+03
3.8510712069910378e+03
3.8510677014550311e+03
3.8505049398445399e+03
3.8505059492337750e+03
3.8505076729423308e+03
3.8505062637726951e+03
3.8496258751416453e+03
3.8496288483176604e+03
3.8496305648004636e+03
3.8496295882003324e+03
3.8481940455698350e+03
3.8481979691023298e+03
3.8482005701145681e+03
3.8481957242904164e+03
3.8458172984413968e+03
3.8458202594774766e+03
3.8458227841983908e+03
3.8458203133974166e+03
3.8420174319580838e+03
3.8420187375195383e+03
3.8420207373128505e+03
3.8420200542415828e+03
3.8334618259657864e+03
3.8334678233492004e+03
3.8334703212487502e+03
3.8334631203273602e+03
3.8219252289956785e+03
3.8219289280081284e+03
3.8219304440150163e+03
3.8219273323826192e+03
3.7886667942555505e+03
3.7886698424466886e+03
3.7886718841036773e+03
3.7886688787541048e+03
3.8107647651333536e+03
3.8107682180248958e+03
3.8107693947044036e+03
3.8107655826031987e+03
4.1817782699370582e+03
4.1817821902761343e+03
4.1817833654698916e+03
4.1817791855457463e+03

