# vtk DataFile Version 2.0

ASCII

DATASET UNSTRUCTURED_GRID

POINTS 136 float 

1.4705882355000000e-02  0.0000000000000000e+00  4.9999999999999996e-02
1.4705882355000000e-02  0.0000000000000000e+00  1.4999999999999999e-01
1.4705882355000000e-02  0.0000000000000000e+00  2.4999999999999997e-01
1.4705882355000000e-02  0.0000000000000000e+00  3.4999999999999998e-01
4.4117647059999994e-02  0.0000000000000000e+00  5.0000000000000003e-02
4.4117647059999994e-02  0.0000000000000000e+00  1.5000000000000002e-01
4.4117647059999994e-02  0.0000000000000000e+00  2.5000000000000000e-01
4.4117647060000001e-02  0.0000000000000000e+00  3.4999999999999998e-01
7.3529411764999983e-02  0.0000000000000000e+00  5.0000000000000010e-02
7.3529411764999983e-02  0.0000000000000000e+00  1.5000000000000002e-01
7.3529411764999997e-02  0.0000000000000000e+00  2.5000000000000000e-01
7.3529411764999997e-02  0.0000000000000000e+00  3.4999999999999998e-01
1.0294117645999996e-01  0.0000000000000000e+00  4.9999999999999989e-02
1.0294117646000002e-01  0.0000000000000000e+00  1.5000000000000002e-01
1.0294117645999999e-01  0.0000000000000000e+00  2.5000000000000000e-01
1.0294117645999998e-01  0.0000000000000000e+00  3.4999999999999998e-01
1.3235294114999999e-01  0.0000000000000000e+00  4.9999999999999996e-02
1.3235294114999999e-01  0.0000000000000000e+00  1.5000000000000002e-01
1.3235294114999999e-01  0.0000000000000000e+00  2.4999999999999997e-01
1.3235294114999999e-01  0.0000000000000000e+00  3.4999999999999992e-01
1.6176470585000000e-01  0.0000000000000000e+00  5.0000000000000003e-02
1.6176470584999997e-01  0.0000000000000000e+00  1.4999999999999999e-01
1.6176470585000000e-01  0.0000000000000000e+00  2.4999999999999997e-01
1.6176470585000000e-01  0.0000000000000000e+00  3.5000000000000003e-01
1.9117647054999998e-01  0.0000000000000000e+00  5.0000000000000003e-02
1.9117647054999998e-01  0.0000000000000000e+00  1.4999999999999999e-01
1.9117647055000000e-01  0.0000000000000000e+00  2.4999999999999997e-01
1.9117647054999998e-01  0.0000000000000000e+00  3.5000000000000003e-01
2.2058823524999999e-01  0.0000000000000000e+00  5.0000000000000003e-02
2.2058823524999999e-01  0.0000000000000000e+00  1.5000000000000002e-01
2.2058823524999999e-01  0.0000000000000000e+00  2.5000000000000000e-01
2.2058823524999999e-01  0.0000000000000000e+00  3.5000000000000003e-01
2.5000000000000000e-01  0.0000000000000000e+00  4.9999999999999996e-02
2.5000000000000000e-01  0.0000000000000000e+00  1.5000000000000005e-01
2.5000000000000000e-01  0.0000000000000000e+00  2.5000000000000000e-01
2.5000000000000000e-01  0.0000000000000000e+00  3.4999999999999998e-01
2.7941176474999996e-01  0.0000000000000000e+00  5.0000000000000003e-02
2.7941176474999996e-01  0.0000000000000000e+00  1.4999999999999999e-01
2.7941176475000001e-01  0.0000000000000000e+00  2.5000000000000000e-01
2.7941176474999990e-01  0.0000000000000000e+00  3.4999999999999992e-01
3.0882352944999997e-01  0.0000000000000000e+00  5.0000000000000003e-02
3.0882352945000002e-01  0.0000000000000000e+00  1.5000000000000002e-01
3.0882352945000002e-01  0.0000000000000000e+00  2.4999999999999997e-01
3.0882352945000002e-01  0.0000000000000000e+00  3.4999999999999992e-01
3.3823529414999998e-01  0.0000000000000000e+00  5.0000000000000003e-02
3.3823529415000003e-01  0.0000000000000000e+00  1.4999999999999999e-01
3.3823529414999998e-01  0.0000000000000000e+00  2.5000000000000000e-01
3.3823529414999992e-01  0.0000000000000000e+00  3.4999999999999992e-01
3.6764705885000004e-01  0.0000000000000000e+00  5.0000000000000003e-02
3.6764705885000004e-01  0.0000000000000000e+00  1.4999999999999999e-01
3.6764705885000004e-01  0.0000000000000000e+00  2.5000000000000000e-01
3.6764705884999999e-01  0.0000000000000000e+00  3.4999999999999992e-01
3.9705882354999994e-01  0.0000000000000000e+00  5.0000000000000003e-02
3.9705882355000005e-01  0.0000000000000000e+00  1.4999999999999999e-01
3.9705882355000000e-01  0.0000000000000000e+00  2.5000000000000000e-01
3.9705882355000000e-01  0.0000000000000000e+00  3.4999999999999992e-01
4.2647058824999995e-01  0.0000000000000000e+00  5.0000000000000003e-02
4.2647058824999989e-01  0.0000000000000000e+00  1.4999999999999999e-01
4.2647058824999995e-01  0.0000000000000000e+00  2.4999999999999997e-01
4.2647058825000006e-01  0.0000000000000000e+00  3.5000000000000003e-01
4.5588235295000001e-01  0.0000000000000000e+00  5.0000000000000003e-02
4.5588235295000001e-01  0.0000000000000000e+00  1.4999999999999999e-01
4.5588235295000001e-01  0.0000000000000000e+00  2.5000000000000000e-01
4.5588235294999990e-01  0.0000000000000000e+00  3.4999999999999992e-01
4.8529411764999991e-01  0.0000000000000000e+00  5.0000000000000003e-02
4.8529411764999991e-01  0.0000000000000000e+00  1.4999999999999999e-01
4.8529411765000002e-01  0.0000000000000000e+00  2.5000000000000000e-01
4.8529411765000002e-01  0.0000000000000000e+00  3.4999999999999992e-01
5.1470588234999992e-01  0.0000000000000000e+00  5.0000000000000003e-02
5.1470588234999992e-01  0.0000000000000000e+00  1.4999999999999999e-01
5.1470588234999992e-01  0.0000000000000000e+00  2.4999999999999997e-01
5.1470588234999992e-01  0.0000000000000000e+00  3.5000000000000003e-01
5.4411764704999999e-01  0.0000000000000000e+00  5.0000000000000003e-02
5.4411764704999999e-01  0.0000000000000000e+00  1.4999999999999999e-01
5.4411764704999988e-01  0.0000000000000000e+00  2.4999999999999997e-01
5.4411764704999988e-01  0.0000000000000000e+00  3.5000000000000003e-01
5.7352941175000016e-01  0.0000000000000000e+00  5.0000000000000010e-02
5.7352941174999994e-01  0.0000000000000000e+00  1.4999999999999999e-01
5.7352941174999994e-01  0.0000000000000000e+00  2.5000000000000000e-01
5.7352941174999994e-01  0.0000000000000000e+00  3.5000000000000003e-01
6.0294117645000000e-01  0.0000000000000000e+00  5.0000000000000003e-02
6.0294117644999989e-01  0.0000000000000000e+00  1.4999999999999999e-01
6.0294117644999989e-01  0.0000000000000000e+00  2.4999999999999997e-01
6.0294117645000000e-01  0.0000000000000000e+00  3.5000000000000003e-01
6.3235294114999996e-01  0.0000000000000000e+00  5.0000000000000010e-02
6.3235294114999996e-01  0.0000000000000000e+00  1.4999999999999999e-01
6.3235294114999996e-01  0.0000000000000000e+00  2.5000000000000000e-01
6.3235294115000007e-01  0.0000000000000000e+00  3.5000000000000003e-01
6.6176470585000002e-01  0.0000000000000000e+00  5.0000000000000010e-02
6.6176470584999991e-01  0.0000000000000000e+00  1.4999999999999999e-01
6.6176470585000002e-01  0.0000000000000000e+00  2.5000000000000000e-01
6.6176470585000002e-01  0.0000000000000000e+00  3.5000000000000003e-01
6.9117647054999998e-01  0.0000000000000000e+00  5.0000000000000003e-02
6.9117647054999998e-01  0.0000000000000000e+00  1.5000000000000005e-01
6.9117647054999987e-01  0.0000000000000000e+00  2.4999999999999997e-01
6.9117647054999987e-01  0.0000000000000000e+00  3.4999999999999992e-01
7.2058823525000004e-01  0.0000000000000000e+00  5.0000000000000010e-02
7.2058823524999993e-01  0.0000000000000000e+00  1.4999999999999999e-01
7.2058823524999982e-01  0.0000000000000000e+00  2.5000000000000000e-01
7.2058823525000004e-01  0.0000000000000000e+00  3.5000000000000003e-01
7.5000000000000000e-01  0.0000000000000000e+00  5.0000000000000003e-02
7.5000000000000000e-01  0.0000000000000000e+00  1.5000000000000002e-01
7.5000000000000000e-01  0.0000000000000000e+00  2.4999999999999997e-01
7.5000000000000000e-01  0.0000000000000000e+00  3.4999999999999998e-01
7.7941176475000018e-01  0.0000000000000000e+00  5.0000000000000010e-02
7.7941176475000007e-01  0.0000000000000000e+00  1.4999999999999999e-01
7.7941176475000007e-01  0.0000000000000000e+00  2.5000000000000000e-01
7.7941176475000018e-01  0.0000000000000000e+00  3.5000000000000003e-01
8.0882352945000002e-01  0.0000000000000000e+00  5.0000000000000003e-02
8.0882352944999980e-01  0.0000000000000000e+00  1.4999999999999999e-01
8.0882352944999991e-01  0.0000000000000000e+00  2.4999999999999997e-01
8.0882352944999991e-01  0.0000000000000000e+00  3.5000000000000003e-01
8.3823529414999987e-01  0.0000000000000000e+00  5.0000000000000003e-02
8.3823529414999987e-01  0.0000000000000000e+00  1.4999999999999999e-01
8.3823529414999987e-01  0.0000000000000000e+00  2.4999999999999997e-01
8.3823529415000009e-01  0.0000000000000000e+00  3.5000000000000003e-01
8.6764705885000004e-01  0.0000000000000000e+00  5.0000000000000010e-02
8.6764705884999982e-01  0.0000000000000000e+00  1.4999999999999999e-01
8.6764705884999993e-01  0.0000000000000000e+00  2.5000000000000000e-01
8.6764705884999993e-01  0.0000000000000000e+00  3.5000000000000003e-01
8.9705882354999988e-01  0.0000000000000000e+00  5.0000000000000003e-02
8.9705882355000011e-01  0.0000000000000000e+00  1.4999999999999999e-01
8.9705882354999988e-01  0.0000000000000000e+00  2.4999999999999997e-01
8.9705882355000000e-01  0.0000000000000000e+00  3.5000000000000003e-01
9.2647058825000006e-01  0.0000000000000000e+00  5.0000000000000003e-02
9.2647058824999973e-01  0.0000000000000000e+00  1.4999999999999999e-01
9.2647058824999984e-01  0.0000000000000000e+00  2.4999999999999997e-01
9.2647058824999995e-01  0.0000000000000000e+00  3.5000000000000003e-01
9.5588235294999990e-01  0.0000000000000000e+00  5.0000000000000003e-02
9.5588235295000012e-01  0.0000000000000000e+00  1.4999999999999999e-01
9.5588235295000012e-01  0.0000000000000000e+00  2.4999999999999997e-01
9.5588235294999979e-01  0.0000000000000000e+00  3.5000000000000003e-01
9.8529411765000030e-01  0.0000000000000000e+00  5.0000000000000010e-02
9.8529411764999986e-01  0.0000000000000000e+00  1.4999999999999999e-01
9.8529411764999997e-01  0.0000000000000000e+00  2.5000000000000000e-01
9.8529411765000008e-01  0.0000000000000000e+00  3.5000000000000003e-01

CELLS 0 0


CELL_TYPES 0


POINT_DATA 136

VECTORS VertexNormals float

0.0000000000000000e+00 0.0000000000000000e+00 0.0000000000000000e+00 
0.0000000000000000e+00 0.0000000000000000e+00 0.0000000000000000e+00 
0.0000000000000000e+00 0.0000000000000000e+00 0.0000000000000000e+00 
0.0000000000000000e+00 0.0000000000000000e+00 0.0000000000000000e+00 
0.0000000000000000e+00 0.0000000000000000e+00 0.0000000000000000e+00 
0.0000000000000000e+00 0.0000000000000000e+00 0.0000000000000000e+00 
0.0000000000000000e+00 0.0000000000000000e+00 0.0000000000000000e+00 
0.0000000000000000e+00 0.0000000000000000e+00 0.0000000000000000e+00 
0.0000000000000000e+00 0.0000000000000000e+00 0.0000000000000000e+00 
0.0000000000000000e+00 0.0000000000000000e+00 0.0000000000000000e+00 
0.0000000000000000e+00 0.0000000000000000e+00 0.0000000000000000e+00 
0.0000000000000000e+00 0.0000000000000000e+00 0.0000000000000000e+00 
0.0000000000000000e+00 0.0000000000000000e+00 0.0000000000000000e+00 
0.0000000000000000e+00 0.0000000000000000e+00 0.0000000000000000e+00 
0.0000000000000000e+00 0.0000000000000000e+00 0.0000000000000000e+00 
0.0000000000000000e+00 0.0000000000000000e+00 0.0000000000000000e+00 
0.0000000000000000e+00 0.0000000000000000e+00 0.0000000000000000e+00 
0.0000000000000000e+00 0.0000000000000000e+00 0.0000000000000000e+00 
0.0000000000000000e+00 0.0000000000000000e+00 0.0000000000000000e+00 
0.0000000000000000e+00 0.0000000000000000e+00 0.0000000000000000e+00 
0.0000000000000000e+00 0.0000000000000000e+00 0.0000000000000000e+00 
0.0000000000000000e+00 0.0000000000000000e+00 0.0000000000000000e+00 
0.0000000000000000e+00 0.0000000000000000e+00 0.0000000000000000e+00 
0.0000000000000000e+00 0.0000000000000000e+00 0.0000000000000000e+00 
0.0000000000000000e+00 0.0000000000000000e+00 0.0000000000000000e+00 
0.0000000000000000e+00 0.0000000000000000e+00 0.0000000000000000e+00 
0.0000000000000000e+00 0.0000000000000000e+00 0.0000000000000000e+00 
0.0000000000000000e+00 0.0000000000000000e+00 0.0000000000000000e+00 
0.0000000000000000e+00 0.0000000000000000e+00 0.0000000000000000e+00 
0.0000000000000000e+00 0.0000000000000000e+00 0.0000000000000000e+00 
0.0000000000000000e+00 0.0000000000000000e+00 0.0000000000000000e+00 
0.0000000000000000e+00 0.0000000000000000e+00 0.0000000000000000e+00 
0.0000000000000000e+00 0.0000000000000000e+00 0.0000000000000000e+00 
0.0000000000000000e+00 0.0000000000000000e+00 0.0000000000000000e+00 
0.0000000000000000e+00 0.0000000000000000e+00 0.0000000000000000e+00 
0.0000000000000000e+00 0.0000000000000000e+00 0.0000000000000000e+00 
0.0000000000000000e+00 0.0000000000000000e+00 0.0000000000000000e+00 
0.0000000000000000e+00 0.0000000000000000e+00 0.0000000000000000e+00 
0.0000000000000000e+00 0.0000000000000000e+00 0.0000000000000000e+00 
0.0000000000000000e+00 0.0000000000000000e+00 0.0000000000000000e+00 
0.0000000000000000e+00 0.0000000000000000e+00 0.0000000000000000e+00 
0.0000000000000000e+00 0.0000000000000000e+00 0.0000000000000000e+00 
0.0000000000000000e+00 0.0000000000000000e+00 0.0000000000000000e+00 
0.0000000000000000e+00 0.0000000000000000e+00 0.0000000000000000e+00 
0.0000000000000000e+00 0.0000000000000000e+00 0.0000000000000000e+00 
0.0000000000000000e+00 0.0000000000000000e+00 0.0000000000000000e+00 
0.0000000000000000e+00 0.0000000000000000e+00 0.0000000000000000e+00 
0.0000000000000000e+00 0.0000000000000000e+00 0.0000000000000000e+00 
0.0000000000000000e+00 0.0000000000000000e+00 0.0000000000000000e+00 
0.0000000000000000e+00 0.0000000000000000e+00 0.0000000000000000e+00 
0.0000000000000000e+00 0.0000000000000000e+00 0.0000000000000000e+00 
0.0000000000000000e+00 0.0000000000000000e+00 0.0000000000000000e+00 
0.0000000000000000e+00 0.0000000000000000e+00 0.0000000000000000e+00 
0.0000000000000000e+00 0.0000000000000000e+00 0.0000000000000000e+00 
0.0000000000000000e+00 0.0000000000000000e+00 0.0000000000000000e+00 
0.0000000000000000e+00 0.0000000000000000e+00 0.0000000000000000e+00 
0.0000000000000000e+00 0.0000000000000000e+00 0.0000000000000000e+00 
0.0000000000000000e+00 0.0000000000000000e+00 0.0000000000000000e+00 
0.0000000000000000e+00 0.0000000000000000e+00 0.0000000000000000e+00 
0.0000000000000000e+00 0.0000000000000000e+00 0.0000000000000000e+00 
0.0000000000000000e+00 0.0000000000000000e+00 0.0000000000000000e+00 
0.0000000000000000e+00 0.0000000000000000e+00 0.0000000000000000e+00 
0.0000000000000000e+00 0.0000000000000000e+00 0.0000000000000000e+00 
0.0000000000000000e+00 0.0000000000000000e+00 0.0000000000000000e+00 
0.0000000000000000e+00 0.0000000000000000e+00 0.0000000000000000e+00 
0.0000000000000000e+00 0.0000000000000000e+00 0.0000000000000000e+00 
0.0000000000000000e+00 0.0000000000000000e+00 0.0000000000000000e+00 
0.0000000000000000e+00 0.0000000000000000e+00 0.0000000000000000e+00 
0.0000000000000000e+00 0.0000000000000000e+00 0.0000000000000000e+00 
0.0000000000000000e+00 0.0000000000000000e+00 0.0000000000000000e+00 
0.0000000000000000e+00 0.0000000000000000e+00 0.0000000000000000e+00 
0.0000000000000000e+00 0.0000000000000000e+00 0.0000000000000000e+00 
0.0000000000000000e+00 0.0000000000000000e+00 0.0000000000000000e+00 
0.0000000000000000e+00 0.0000000000000000e+00 0.0000000000000000e+00 
0.0000000000000000e+00 0.0000000000000000e+00 0.0000000000000000e+00 
0.0000000000000000e+00 0.0000000000000000e+00 0.0000000000000000e+00 
0.0000000000000000e+00 0.0000000000000000e+00 0.0000000000000000e+00 
0.0000000000000000e+00 0.0000000000000000e+00 0.0000000000000000e+00 
0.0000000000000000e+00 0.0000000000000000e+00 0.0000000000000000e+00 
0.0000000000000000e+00 0.0000000000000000e+00 0.0000000000000000e+00 
0.0000000000000000e+00 0.0000000000000000e+00 0.0000000000000000e+00 
0.0000000000000000e+00 0.0000000000000000e+00 0.0000000000000000e+00 
0.0000000000000000e+00 0.0000000000000000e+00 0.0000000000000000e+00 
0.0000000000000000e+00 0.0000000000000000e+00 0.0000000000000000e+00 
0.0000000000000000e+00 0.0000000000000000e+00 0.0000000000000000e+00 
0.0000000000000000e+00 0.0000000000000000e+00 0.0000000000000000e+00 
0.0000000000000000e+00 0.0000000000000000e+00 0.0000000000000000e+00 
0.0000000000000000e+00 0.0000000000000000e+00 0.0000000000000000e+00 
0.0000000000000000e+00 0.0000000000000000e+00 0.0000000000000000e+00 
0.0000000000000000e+00 0.0000000000000000e+00 0.0000000000000000e+00 
0.0000000000000000e+00 0.0000000000000000e+00 0.0000000000000000e+00 
0.0000000000000000e+00 0.0000000000000000e+00 0.0000000000000000e+00 
0.0000000000000000e+00 0.0000000000000000e+00 0.0000000000000000e+00 
0.0000000000000000e+00 0.0000000000000000e+00 0.0000000000000000e+00 
0.0000000000000000e+00 0.0000000000000000e+00 0.0000000000000000e+00 
0.0000000000000000e+00 0.0000000000000000e+00 0.0000000000000000e+00 
0.0000000000000000e+00 0.0000000000000000e+00 0.0000000000000000e+00 
0.0000000000000000e+00 0.0000000000000000e+00 0.0000000000000000e+00 
0.0000000000000000e+00 0.0000000000000000e+00 0.0000000000000000e+00 
0.0000000000000000e+00 0.0000000000000000e+00 0.0000000000000000e+00 
0.0000000000000000e+00 0.0000000000000000e+00 0.0000000000000000e+00 
0.0000000000000000e+00 0.0000000000000000e+00 0.0000000000000000e+00 
0.0000000000000000e+00 0.0000000000000000e+00 0.0000000000000000e+00 
0.0000000000000000e+00 0.0000000000000000e+00 0.0000000000000000e+00 
0.0000000000000000e+00 0.0000000000000000e+00 0.0000000000000000e+00 
0.0000000000000000e+00 0.0000000000000000e+00 0.0000000000000000e+00 
0.0000000000000000e+00 0.0000000000000000e+00 0.0000000000000000e+00 
0.0000000000000000e+00 0.0000000000000000e+00 0.0000000000000000e+00 
0.0000000000000000e+00 0.0000000000000000e+00 0.0000000000000000e+00 
0.0000000000000000e+00 0.0000000000000000e+00 0.0000000000000000e+00 
0.0000000000000000e+00 0.0000000000000000e+00 0.0000000000000000e+00 
0.0000000000000000e+00 0.0000000000000000e+00 0.0000000000000000e+00 
0.0000000000000000e+00 0.0000000000000000e+00 0.0000000000000000e+00 
0.0000000000000000e+00 0.0000000000000000e+00 0.0000000000000000e+00 
0.0000000000000000e+00 0.0000000000000000e+00 0.0000000000000000e+00 
0.0000000000000000e+00 0.0000000000000000e+00 0.0000000000000000e+00 
0.0000000000000000e+00 0.0000000000000000e+00 0.0000000000000000e+00 
0.0000000000000000e+00 0.0000000000000000e+00 0.0000000000000000e+00 
0.0000000000000000e+00 0.0000000000000000e+00 0.0000000000000000e+00 
0.0000000000000000e+00 0.0000000000000000e+00 0.0000000000000000e+00 
0.0000000000000000e+00 0.0000000000000000e+00 0.0000000000000000e+00 
0.0000000000000000e+00 0.0000000000000000e+00 0.0000000000000000e+00 
0.0000000000000000e+00 0.0000000000000000e+00 0.0000000000000000e+00 
0.0000000000000000e+00 0.0000000000000000e+00 0.0000000000000000e+00 
0.0000000000000000e+00 0.0000000000000000e+00 0.0000000000000000e+00 
0.0000000000000000e+00 0.0000000000000000e+00 0.0000000000000000e+00 
0.0000000000000000e+00 0.0000000000000000e+00 0.0000000000000000e+00 
0.0000000000000000e+00 0.0000000000000000e+00 0.0000000000000000e+00 
0.0000000000000000e+00 0.0000000000000000e+00 0.0000000000000000e+00 
0.0000000000000000e+00 0.0000000000000000e+00 0.0000000000000000e+00 
0.0000000000000000e+00 0.0000000000000000e+00 0.0000000000000000e+00 
0.0000000000000000e+00 0.0000000000000000e+00 0.0000000000000000e+00 
0.0000000000000000e+00 0.0000000000000000e+00 0.0000000000000000e+00 
0.0000000000000000e+00 0.0000000000000000e+00 0.0000000000000000e+00 
0.0000000000000000e+00 0.0000000000000000e+00 0.0000000000000000e+00 
0.0000000000000000e+00 0.0000000000000000e+00 0.0000000000000000e+00 

SCALARS Temperature float
LOOKUP_TABLE default
3.0186745932440294e+02
3.0186745936357687e+02
3.0186745936357687e+02
3.0186746004716383e+02
3.0202039409385389e+02
3.0202039450990884e+02
3.0202039450990884e+02
3.0202039526492928e+02
3.0209917790490994e+02
3.0209917837816914e+02
3.0209917837816914e+02
3.0209917882798703e+02
3.0215150875232888e+02
3.0215150949403824e+02
3.0215150949403824e+02
3.0215150962407120e+02
3.0218293725617525e+02
3.0218293832835343e+02
3.0218293832835343e+02
3.0218293803587699e+02
3.0220283131665087e+02
3.0220283253775199e+02
3.0220283253775199e+02
3.0220283214371801e+02
3.0221440754986111e+02
3.0221440876806054e+02
3.0221440876806054e+02
3.0221440834971958e+02
3.0222120063338861e+02
3.0222120175512197e+02
3.0222120175512197e+02
3.0222120150529469e+02
3.0222557772046122e+02
3.0222557867250600e+02
3.0222557867250600e+02
3.0222557865465103e+02
3.0222840141981118e+02
3.0222840247740362e+02
3.0222840247740362e+02
3.0222840244512668e+02
3.0223006158752804e+02
3.0223006247129319e+02
3.0223006247129319e+02
3.0223006263395627e+02
3.0223116313404546e+02
3.0223116410009499e+02
3.0223116410009499e+02
3.0223116423689373e+02
3.0223186427362475e+02
3.0223186515290354e+02
3.0223186515290354e+02
3.0223186536436486e+02
3.0223229017416151e+02
3.0223229117064335e+02
3.0223229117064335e+02
3.0223229130215657e+02
3.0223251100516183e+02
3.0223251205655259e+02
3.0223251205655259e+02
3.0223251212228564e+02
3.0223261891668579e+02
3.0223261993114761e+02
3.0223261993114761e+02
3.0223262006159837e+02
3.0223261650582356e+02
3.0223261755666289e+02
3.0223261755666289e+02
3.0223261766131100e+02
3.0223253920098693e+02
3.0223254041075808e+02
3.0223254041075808e+02
3.0223254044078391e+02
3.0223235780924091e+02
3.0223235888552813e+02
3.0223235888552813e+02
3.0223235909805732e+02
3.0223206245848922e+02
3.0223206363635063e+02
3.0223206363635063e+02
3.0223206378064822e+02
3.0223169233235683e+02
3.0223169354119187e+02
3.0223169354119187e+02
3.0223169366558665e+02
3.0223107017838493e+02
3.0223107138442987e+02
3.0223107138442987e+02
3.0223107150463329e+02
3.0223027829341652e+02
3.0223027943223576e+02
3.0223027943223576e+02
3.0223027962311602e+02
3.0222913959008639e+02
3.0222914083612613e+02
3.0222914083612613e+02
3.0222914095085247e+02
3.0222748639248738e+02
3.0222748766881733e+02
3.0222748766881733e+02
3.0222748777026351e+02
3.0222503477201627e+02
3.0222503614862359e+02
3.0222503614862359e+02
3.0222503611114098e+02
3.0222128944074456e+02
3.0222129116503407e+02
3.0222129116503407e+02
3.0222129055539091e+02
3.0221534429589605e+02
3.0221534523198721e+02
3.0221534523198721e+02
3.0221534552976652e+02
3.0220526908618831e+02
3.0220527106667339e+02
3.0220527106667339e+02
3.0220527023912155e+02
3.0219176490841829e+02
3.0219176686936322e+02
3.0219176686936322e+02
3.0219176603801350e+02
3.0216183489730707e+02
3.0216183607516223e+02
3.0216183607516223e+02
3.0216183583276944e+02
3.0212035582919543e+02
3.0212035696285875e+02
3.0212035696285875e+02
3.0212035673296913e+02
3.0201647999093660e+02
3.0201648156799740e+02
3.0201648156799740e+02
3.0201648073515332e+02
3.0185040464087717e+02
3.0185040569402406e+02
3.0185040569402406e+02
3.0185040532146019e+02

SCALARS Heat-Flux float
LOOKUP_TABLE default
3.6883603243782991e+03
3.6883661499196023e+03
3.6883679247592236e+03
3.6883608767835540e+03
3.1379279801309158e+03
3.1379309304749768e+03
3.1379318711595261e+03
3.1379289594187867e+03
3.0647331823558497e+03
3.0647345539990056e+03
3.0647357305257183e+03
3.0647336896210618e+03
3.0334701840140051e+03
3.0334708882975974e+03
3.0334719350052183e+03
3.0334711278235773e+03
3.0356097168856650e+03
3.0356104587757727e+03
3.0356116039190956e+03
3.0356103982012419e+03
3.0410306426747411e+03
3.0410313866879733e+03
3.0410325946540979e+03
3.0410318414680651e+03
3.0511207593306608e+03
3.0511215289167012e+03
3.0511227397510092e+03
3.0511217163533729e+03
3.0604731202241956e+03
3.0604739996451817e+03
3.0604752469385858e+03
3.0604740429342201e+03
3.0665760194191525e+03
3.0665769542167245e+03
3.0665782588737784e+03
3.0665767575294012e+03
3.0707861073977256e+03
3.0707871263992274e+03
3.0707884808529343e+03
3.0707869798097818e+03
3.0744736742162786e+03
3.0744744628493208e+03
3.0744758701621322e+03
3.0744744853604070e+03
3.0767981422861340e+03
3.0767989438631048e+03
3.0768004071709584e+03
3.0767992939712713e+03
3.0784367909756838e+03
3.0784370891262370e+03
3.0784386103594452e+03
3.0784378116608432e+03
3.0795910266977444e+03
3.0795915153510578e+03
3.0795930792344734e+03
3.0795926852668345e+03
3.0804489436668518e+03
3.0804491995353601e+03
3.0804508050940049e+03
3.0804502725433840e+03
3.0809148921442102e+03
3.0809154292328467e+03
3.0809170646323773e+03
3.0809165821985525e+03
3.0812153457729437e+03
3.0812156494059300e+03
3.0812173160877137e+03
3.0812168779943022e+03
3.0812207355134888e+03
3.0812209321207774e+03
3.0812226281006588e+03
3.0812223163746226e+03
3.0810957480709476e+03
3.0810957724759646e+03
3.0810974982909102e+03
3.0810970331025601e+03
3.0808338414703030e+03
3.0808340719719126e+03
3.0808358213602332e+03
3.0808353189255276e+03
3.0800314415559114e+03
3.0800318451547355e+03
3.0800336245032668e+03
3.0800332159902609e+03
3.0793252448762350e+03
3.0793257663812255e+03
3.0793275995027216e+03
3.0793268047520532e+03
3.0778399869479472e+03
3.0778410129190888e+03
3.0778429171448797e+03
3.0778419498077710e+03
3.0757927168175229e+03
3.0757937168062199e+03
3.0757957003479542e+03
3.0757942033596919e+03
3.0728543517652715e+03
3.0728556740170461e+03
3.0728576807618083e+03
3.0728559836141358e+03
3.0686280666763187e+03
3.0686305722454554e+03
3.0686325134738581e+03
3.0686302652320592e+03
3.0625916618198971e+03
3.0625934116556891e+03
3.0625952510243224e+03
3.0625922671861181e+03
3.0543540988437589e+03
3.0543528693109683e+03
3.0543545931665003e+03
3.0543558121768001e+03
3.0474181368357677e+03
3.0474207800303702e+03
3.0474223962293763e+03
3.0474198164039976e+03
3.0221238334328509e+03
3.0221262109953377e+03
3.0221277254320730e+03
3.0221247091554687e+03
3.0272518367804878e+03
3.0272516310309584e+03
3.0272528335655816e+03
3.0272527195214925e+03
2.9884090548075619e+03
2.9884095032837649e+03
2.9884105419368998e+03
2.9884102143354526e+03
3.1594606693863170e+03
3.1594629678220372e+03
3.1594640755138253e+03
3.1594610064428707e+03
3.7361311050743097e+03
3.7361321258715170e+03
3.7361327727870957e+03
3.7361319025985713e+03

